 Entering Link 1 = C:\Users\OEM\Downloads\G09W\l1.exe PID=      9400.
  
 Copyright (c) 1988,1990,1992,1993,1995,1998,2003,2009,2013,
            Gaussian, Inc.  All Rights Reserved.
  
 This is part of the Gaussian(R) 09 program.  It is based on
 the Gaussian(R) 03 system (copyright 2003, Gaussian, Inc.),
 the Gaussian(R) 98 system (copyright 1998, Gaussian, Inc.),
 the Gaussian(R) 94 system (copyright 1995, Gaussian, Inc.),
 the Gaussian 92(TM) system (copyright 1992, Gaussian, Inc.),
 the Gaussian 90(TM) system (copyright 1990, Gaussian, Inc.),
 the Gaussian 88(TM) system (copyright 1988, Gaussian, Inc.),
 the Gaussian 86(TM) system (copyright 1986, Carnegie Mellon
 University), and the Gaussian 82(TM) system (copyright 1983,
 Carnegie Mellon University). Gaussian is a federally registered
 trademark of Gaussian, Inc.
  
 This software contains proprietary and confidential information,
 including trade secrets, belonging to Gaussian, Inc.
  
 This software is provided under written license and may be
 used, copied, transmitted, or stored only in accord with that
 written license.
  
 The following legend is applicable only to US Government
 contracts under FAR:
  
                    RESTRICTED RIGHTS LEGEND
  
 Use, reproduction and disclosure by the US Government is
 subject to restrictions as set forth in subparagraphs (a)
 and (c) of the Commercial Computer Software - Restricted
 Rights clause in FAR 52.227-19.
  
 Gaussian, Inc.
 340 Quinnipiac St., Bldg. 40, Wallingford CT 06492
  
  
 ---------------------------------------------------------------
 Warning -- This program may not be used in any manner that
 competes with the business of Gaussian, Inc. or will provide
 assistance to any competitor of Gaussian, Inc.  The licensee
 of this program is prohibited from giving any competitor of
 Gaussian, Inc. access to this program.  By using this program,
 the user acknowledges that Gaussian, Inc. is engaged in the
 business of creating and licensing software in the field of
 computational chemistry and represents and warrants to the
 licensee that it is not a competitor of Gaussian, Inc. and that
 it will not use this program in any manner prohibited above.
 ---------------------------------------------------------------
  

 Cite this work as:
 Gaussian 09, Revision D.01,
 M. J. Frisch, G. W. Trucks, H. B. Schlegel, G. E. Scuseria, 
 M. A. Robb, J. R. Cheeseman, G. Scalmani, V. Barone, B. Mennucci, 
 G. A. Petersson, H. Nakatsuji, M. Caricato, X. Li, H. P. Hratchian, 
 A. F. Izmaylov, J. Bloino, G. Zheng, J. L. Sonnenberg, M. Hada, 
 M. Ehara, K. Toyota, R. Fukuda, J. Hasegawa, M. Ishida, T. Nakajima, 
 Y. Honda, O. Kitao, H. Nakai, T. Vreven, J. A. Montgomery, Jr., 
 J. E. Peralta, F. Ogliaro, M. Bearpark, J. J. Heyd, E. Brothers, 
 K. N. Kudin, V. N. Staroverov, T. Keith, R. Kobayashi, J. Normand, 
 K. Raghavachari, A. Rendell, J. C. Burant, S. S. Iyengar, J. Tomasi, 
 M. Cossi, N. Rega, J. M. Millam, M. Klene, J. E. Knox, J. B. Cross, 
 V. Bakken, C. Adamo, J. Jaramillo, R. Gomperts, R. E. Stratmann, 
 O. Yazyev, A. J. Austin, R. Cammi, C. Pomelli, J. W. Ochterski, 
 R. L. Martin, K. Morokuma, V. G. Zakrzewski, G. A. Voth, 
 P. Salvador, J. J. Dannenberg, S. Dapprich, A. D. Daniels, 
 O. Farkas, J. B. Foresman, J. V. Ortiz, J. Cioslowski, 
 and D. J. Fox, Gaussian, Inc., Wallingford CT, 2013.
 
 ******************************************
 Gaussian 09:  IA32W-G09RevD.01 24-Apr-2013
                17-Sep-2024 
 ******************************************
 ----------
 #n CBS-QB3
 ----------
 1/14=-1,18=20,19=15,26=3,38=1/1,3;
 2/9=110,12=2,17=6,18=5,40=1/2;
 3/5=4,6=6,7=700,11=2,16=1,25=1,30=1,71=1,74=-5/1,2,3;
 4//1;
 5/5=2,38=5/2;
 6/7=2,8=2,9=2,10=2,28=1/1;
 7//1,2,3,16;
 1/14=-1,18=20,19=15,26=3/3(2);
 2/9=110/2;
 99//99;
 2/9=110/2;
 3/5=4,6=6,7=700,11=2,16=1,25=1,30=1,71=1,74=-5/1,2,3;
 4/5=5,16=3,69=1/1;
 5/5=2,38=5/2;
 7//1,2,3,16;
 1/14=-1,18=20,19=15,26=3/3(-5);
 2/9=110/2;
 6/7=2,8=2,9=2,10=2,19=2,28=1/1;
 99/9=1/99;
 -----------------------
 BH3 CBS-QB3 calculation
 -----------------------
 Symbolic Z-matrix:
 Charge =  0 Multiplicity = 1
 B                     0.        0.        0. 
 H                     0.        1.18957   0. 
 H                     1.0302   -0.59479   0. 
 H                    -1.0302   -0.59479   0. 
 

 GradGradGradGradGradGradGradGradGradGradGradGradGradGradGradGradGradGrad
 Berny optimization.
 Initialization pass.
                           ----------------------------
                           !    Initial Parameters    !
                           ! (Angstroms and Degrees)  !
 --------------------------                            --------------------------
 ! Name  Definition              Value          Derivative Info.                !
 --------------------------------------------------------------------------------
 ! R1    R(1,2)                  1.1896         estimate D2E/DX2                !
 ! R2    R(1,3)                  1.1896         estimate D2E/DX2                !
 ! R3    R(1,4)                  1.1896         estimate D2E/DX2                !
 ! A1    A(2,1,3)              120.0002         estimate D2E/DX2                !
 ! A2    A(2,1,4)              120.0002         estimate D2E/DX2                !
 ! A3    A(3,1,4)              119.9997         estimate D2E/DX2                !
 ! D1    D(2,1,4,3)            180.0            estimate D2E/DX2                !
 --------------------------------------------------------------------------------
 Trust Radius=3.00D-01 FncErr=1.00D-07 GrdErr=1.00D-06
 Number of steps in this run=     20 maximum allowed number of steps=    100.
 GradGradGradGradGradGradGradGradGradGradGradGradGradGradGradGradGradGrad

                          Input orientation:                          
 ---------------------------------------------------------------------
 Center     Atomic      Atomic             Coordinates (Angstroms)
 Number     Number       Type             X           Y           Z
 ---------------------------------------------------------------------
      1          5           0        0.000000    0.000000    0.000000
      2          1           0        0.000000    1.189570    0.000000
      3          1           0        1.030200   -0.594790    0.000000
      4          1           0       -1.030200   -0.594790    0.000000
 ---------------------------------------------------------------------
                    Distance matrix (angstroms):
                    1          2          3          4
     1  B    0.000000
     2  H    1.189570   0.000000
     3  H    1.189574   2.060401   0.000000
     4  H    1.189574   2.060401   2.060400   0.000000
 This structure is nearly, but not quite of a higher symmetry.
 Consider Symm=Loose if the higher symmetry is desired.
 Stoichiometry    BH3
 Framework group  C2V[C2(BH),SGV(H2)]
 Deg. of freedom     3
 Full point group                 C2V     NOp   4
 Largest Abelian subgroup         C2V     NOp   4
 Largest concise Abelian subgroup C2      NOp   2
                         Standard orientation:                         
 ---------------------------------------------------------------------
 Center     Atomic      Atomic             Coordinates (Angstroms)
 Number     Number       Type             X           Y           Z
 ---------------------------------------------------------------------
      1          5           0        0.000000    0.000000    0.000001
      2          1           0        0.000000    0.000000    1.189571
      3          1           0        0.000000    1.030200   -0.594789
      4          1           0        0.000000   -1.030200   -0.594789
 ---------------------------------------------------------------------
 Rotational constants (GHZ):    236.2430093    236.2426762    118.1214214
 Standard basis: 6-311G(2d,d,p) (5D, 7F)
 There are    19 symmetry adapted cartesian basis functions of A1  symmetry.
 There are     2 symmetry adapted cartesian basis functions of A2  symmetry.
 There are     6 symmetry adapted cartesian basis functions of B1  symmetry.
 There are    10 symmetry adapted cartesian basis functions of B2  symmetry.
 There are    18 symmetry adapted basis functions of A1  symmetry.
 There are     2 symmetry adapted basis functions of A2  symmetry.
 There are     6 symmetry adapted basis functions of B1  symmetry.
 There are    10 symmetry adapted basis functions of B2  symmetry.
    36 basis functions,    56 primitive gaussians,    37 cartesian basis functions
     4 alpha electrons        4 beta electrons
       nuclear repulsion energy         7.4431922888 Hartrees.
 NAtoms=    4 NActive=    4 NUniq=    3 SFac= 1.78D+00 NAtFMM=   60 NAOKFM=F Big=F
 Integral buffers will be    262144 words long.
 Raffenetti 2 integral format.
 Two-electron integral symmetry is turned on.
 One-electron integrals computed using PRISM.
 NBasis=    36 RedAO= T EigKep=  1.70D-02  NBF=    18     2     6    10
 NBsUse=    36 1.00D-06 EigRej= -1.00D+00 NBFU=    18     2     6    10
 ExpMin= 9.89D-02 ExpMax= 2.86D+03 ExpMxC= 4.28D+02 IAcc=2 IRadAn=         4 AccDes= 0.00D+00
 Harris functional with IExCor=  402 and IRadAn=       4 diagonalized for initial guess.
 HarFok:  IExCor=  402 AccDes= 0.00D+00 IRadAn=         4 IDoV= 1 UseB2=F ITyADJ=14
 ICtDFT=  3500011 ScaDFX=  1.000000  1.000000  1.000000  1.000000
 FoFCou: FMM=F IPFlag=           0 FMFlag=      100000 FMFlg1=           0
         NFxFlg=           0 DoJE=T BraDBF=F KetDBF=T FulRan=T
         wScrn=  0.000000 ICntrl=     500 IOpCl=  0 I1Cent=   200000004 NGrid=           0
         NMat0=    1 NMatS0=      1 NMatT0=    0 NMatD0=    1 NMtDS0=    0 NMtDT0=    0
 Petite list used in FoFCou.
 Initial guess orbital symmetries:
       Occupied  (A1) (A1) (A1) (B2)
       Virtual   (B1) (A1) (B2) (A1) (A1) (B2) (A1) (B1) (B2) (A1)
                 (A1) (B1) (A2) (A1) (B2) (A1) (B2) (B1) (A2) (B1)
                 (A1) (B2) (B1) (A1) (B2) (A1) (B2) (A1) (A1) (A1)
                 (B2) (A1)
 The electronic state of the initial guess is 1-A1.
 Keep R1 ints in memory in symmetry-blocked form, NReq=1103102.
 Requested convergence on RMS density matrix=1.00D-08 within 128 cycles.
 Requested convergence on MAX density matrix=1.00D-06.
 Requested convergence on             energy=1.00D-06.
 No special actions if energy rises.
 Integral accuracy reduced to 1.0D-05 until final iterations.
 Initial convergence to 1.0D-05 achieved.  Increase integral accuracy.
 SCF Done:  E(RB3LYP) =  -26.6211130120     A.U. after    8 cycles
            NFock=  8  Conv=0.69D-08     -V/T= 2.0073

 **********************************************************************

            Population analysis using the SCF density.

 **********************************************************************

 Orbital symmetries:
       Occupied  (A1) (A1) (A1) (B2)
       Virtual   (B1) (A1) (B2) (A1) (A1) (B2) (A1) (B1) (B2) (A1)
                 (A1) (A2) (B1) (A1) (A1) (B2) (B2) (B1) (A2) (B1)
                 (A1) (B2) (B1) (A1) (B2) (A1) (B2) (A1) (A1) (A1)
                 (B2) (A1)
 The electronic state is 1-A1.
 Alpha  occ. eigenvalues --   -6.76428  -0.51912  -0.35833  -0.35833
 Alpha virt. eigenvalues --   -0.07934   0.08920   0.12606   0.12606   0.21244
 Alpha virt. eigenvalues --    0.21244   0.27108   0.30320   0.50557   0.50557
 Alpha virt. eigenvalues --    0.54067   0.76169   0.76169   1.03768   1.04570
 Alpha virt. eigenvalues --    1.04570   1.34795   1.52362   1.73460   1.73461
 Alpha virt. eigenvalues --    1.79847   1.79847   1.81569   1.96872   1.96872
 Alpha virt. eigenvalues --    2.11050   2.47040   2.47040   2.67707   2.70331
 Alpha virt. eigenvalues --    2.70331  14.46067
          Condensed to atoms (all electrons):
               1          2          3          4
     1  B    3.703490   0.415148   0.415146   0.415146
     2  H    0.415148   0.659769  -0.028949  -0.028949
     3  H    0.415146  -0.028949   0.659777  -0.028949
     4  H    0.415146  -0.028949  -0.028949   0.659777
 Mulliken charges:
               1
     1  B    0.051070
     2  H   -0.017019
     3  H   -0.017025
     4  H   -0.017025
 Sum of Mulliken charges =   0.00000
 Mulliken charges with hydrogens summed into heavy atoms:
               1
     1  B    0.000000
 Electronic spatial extent (au):  <R**2>=             34.4954
 Charge=              0.0000 electrons
 Dipole moment (field-independent basis, Debye):
    X=              0.0000    Y=              0.0000    Z=              0.0000  Tot=              0.0000
 Quadrupole moment (field-independent basis, Debye-Ang):
   XX=             -7.1992   YY=             -9.4038   ZZ=             -9.4037
   XY=              0.0000   XZ=              0.0000   YZ=              0.0000
 Traceless Quadrupole moment (field-independent basis, Debye-Ang):
   XX=              1.4697   YY=             -0.7348   ZZ=             -0.7348
   XY=              0.0000   XZ=              0.0000   YZ=              0.0000
 Octapole moment (field-independent basis, Debye-Ang**2):
  XXX=              0.0000  YYY=              0.0000  ZZZ=              0.1149  XYY=              0.0000
  XXY=              0.0000  XXZ=              0.0000  XZZ=              0.0000  YZZ=              0.0000
  YYZ=             -0.1148  XYZ=              0.0000
 Hexadecapole moment (field-independent basis, Debye-Ang**3):
 XXXX=             -7.6283 YYYY=            -24.9609 ZZZZ=            -24.9608 XXXY=              0.0000
 XXXZ=              0.0000 YYYX=              0.0000 YYYZ=              0.0000 ZZZX=              0.0000
 ZZZY=              0.0000 XXYY=             -5.6785 XXZZ=             -5.6785 YYZZ=             -8.3203
 XXYZ=              0.0000 YYXZ=              0.0000 ZZXY=              0.0000
 N-N= 7.443192288796D+00 E-N=-7.555069919787D+01  KE= 2.642827028615D+01
 Symmetry A1   KE= 2.495549053857D+01
 Symmetry A2   KE= 2.486490502553D-35
 Symmetry B1   KE= 4.132584140115D-33
 Symmetry B2   KE= 1.472779747579D+00
 Calling FoFJK, ICntrl=      2127 FMM=F ISym2X=1 I1Cent= 0 IOpClX= 0 NMat=1 NMatS=1 NMatT=0.
 ***** Axes restored to original set *****
 -------------------------------------------------------------------
 Center     Atomic                   Forces (Hartrees/Bohr)
 Number     Number              X              Y              Z
 -------------------------------------------------------------------
      1        5           0.000000000   -0.000005225    0.000000000
      2        1           0.000000000    0.000039057    0.000000000
      3        1           0.000033055   -0.000016916    0.000000000
      4        1          -0.000033055   -0.000016916    0.000000000
 -------------------------------------------------------------------
 Cartesian Forces:  Max     0.000039057 RMS     0.000018952

 GradGradGradGradGradGradGradGradGradGradGradGradGradGradGradGradGradGrad
 Berny optimization.
 FormGI is forming the generalized inverse of G from B-inverse, IUseBI=4.
 Internal  Forces:  Max     0.000039057 RMS     0.000024750
 Search for a local minimum.
 Step number   1 out of a maximum of   20
 All quantities printed in internal units (Hartrees-Bohrs-Radians)
 Mixed Optimization -- En-DIIS/RFO-DIIS
 Second derivative matrix not updated -- first step.
 The second derivative matrix:
                          R1        R2        R3        A1        A2
           R1           0.25443
           R2           0.00000   0.25442
           R3           0.00000   0.00000   0.25442
           A1           0.00000   0.00000   0.00000   0.16000
           A2           0.00000   0.00000   0.00000   0.00000   0.16000
           A3           0.00000   0.00000   0.00000   0.00000   0.00000
           D1           0.00000   0.00000   0.00000   0.00000   0.00000
                          A3        D1
           A3           0.16000
           D1           0.00000   0.00230
 ITU=  0
     Eigenvalues ---    0.00230   0.16000   0.16000   0.25442   0.25442
     Eigenvalues ---    0.25443
 RFO step:  Lambda=-1.68808503D-08 EMin= 2.30000000D-03
 Linear search not attempted -- first point.
 Iteration  1 RMS(Cart)=  0.00009739 RMS(Int)=  0.00000000
 Iteration  2 RMS(Cart)=  0.00000000 RMS(Int)=  0.00000000
 ClnCor:  largest displacement from symmetrization is 1.97D-13 for atom     1.
 Variable       Old X    -DE/DX   Delta X   Delta X   Delta X     New X
                                 (Linear)    (Quad)   (Total)
    R1        2.24796   0.00004   0.00000   0.00015   0.00015   2.24812
    R2        2.24797   0.00004   0.00000   0.00015   0.00015   2.24812
    R3        2.24797   0.00004   0.00000   0.00015   0.00015   2.24812
    A1        2.09440   0.00000   0.00000  -0.00001  -0.00001   2.09439
    A2        2.09440   0.00000   0.00000  -0.00001  -0.00001   2.09439
    A3        2.09439   0.00000   0.00000   0.00002   0.00002   2.09441
    D1        3.14159   0.00000   0.00000   0.00000   0.00000   3.14159
         Item               Value     Threshold  Converged?
 Maximum Force            0.000039     0.000450     YES
 RMS     Force            0.000025     0.000300     YES
 Maximum Displacement     0.000143     0.001800     YES
 RMS     Displacement     0.000097     0.001200     YES
 Predicted change in Energy=-8.440425D-09
 Optimization completed.
    -- Stationary point found.
                           ----------------------------
                           !   Optimized Parameters   !
                           ! (Angstroms and Degrees)  !
 --------------------------                            --------------------------
 ! Name  Definition              Value          Derivative Info.                !
 --------------------------------------------------------------------------------
 ! R1    R(1,2)                  1.1896         -DE/DX =    0.0                 !
 ! R2    R(1,3)                  1.1896         -DE/DX =    0.0                 !
 ! R3    R(1,4)                  1.1896         -DE/DX =    0.0                 !
 ! A1    A(2,1,3)              120.0002         -DE/DX =    0.0                 !
 ! A2    A(2,1,4)              120.0002         -DE/DX =    0.0                 !
 ! A3    A(3,1,4)              119.9997         -DE/DX =    0.0                 !
 ! D1    D(2,1,4,3)            180.0            -DE/DX =    0.0                 !
 --------------------------------------------------------------------------------
 GradGradGradGradGradGradGradGradGradGradGradGradGradGradGradGradGradGrad

                          Input orientation:                          
 ---------------------------------------------------------------------
 Center     Atomic      Atomic             Coordinates (Angstroms)
 Number     Number       Type             X           Y           Z
 ---------------------------------------------------------------------
      1          5           0        0.000000    0.000000    0.000000
      2          1           0        0.000000    1.189570    0.000000
      3          1           0        1.030200   -0.594790    0.000000
      4          1           0       -1.030200   -0.594790    0.000000
 ---------------------------------------------------------------------
                    Distance matrix (angstroms):
                    1          2          3          4
     1  B    0.000000
     2  H    1.189570   0.000000
     3  H    1.189574   2.060401   0.000000
     4  H    1.189574   2.060401   2.060400   0.000000
 Stoichiometry    BH3
 Framework group  C2V[C2(BH),SGV(H2)]
 Deg. of freedom     3
 Full point group                 C2V     NOp   4
 Largest Abelian subgroup         C2V     NOp   4
 Largest concise Abelian subgroup C2      NOp   2
                         Standard orientation:                         
 ---------------------------------------------------------------------
 Center     Atomic      Atomic             Coordinates (Angstroms)
 Number     Number       Type             X           Y           Z
 ---------------------------------------------------------------------
      1          5           0        0.000000    0.000000    0.000001
      2          1           0        0.000000    0.000000    1.189571
      3          1           0        0.000000    1.030200   -0.594789
      4          1           0        0.000000   -1.030200   -0.594789
 ---------------------------------------------------------------------
 Rotational constants (GHZ):    236.2430093    236.2426762    118.1214214
 1|1|UNPC-ALI-JAO|FOpt|RB3LYP|6-311G(2d,d,p)|B1H3|OEM|17-Sep-2024|0||#n
  CBS-QB3||BH3 CBS-QB3 calculation||0,1|B,0.,0.,0.|H,0.,1.18957,0.|H,1.
 0302,-0.59479,0.|H,-1.0302,-0.59479,0.||Version=IA32W-G09RevD.01|State
 =1-A1|HF=-26.621113|RMSD=6.911e-009|RMSF=1.895e-005|Dipole=0.,0.000006
 2,0.|Quadrupole=-0.5463426,-0.5463138,1.0926564,0.,0.,0.|PG=C02V [C2(B
 1H1),SGV(H2)]||@


 AND HERE I AM, FOR ALL MY LORE,
 THE WRETCHED FOOL I WAS BEFORE.
 CALLED MASTER OF ARTS, AND DOCTOR TO BOOT,
 FOR TEN YEARS ALMOST I CONFUTE
 AND UP AND DOWN, WHEREVER IT GOES
 I DRAG MY STUDENTS BY THE NOSE --
 AND SEE THAT FOR ALL OUR SCIENCE AND ART
 WE CAN KNOW NOTHING.  IT BURNS MY HEART.

                                       -- FAUST
 Job cpu time:       0 days  0 hours  0 minutes 35.0 seconds.
 File lengths (MBytes):  RWF=      5 Int=      0 D2E=      0 Chk=      1 Scr=      1
 Normal termination of Gaussian 09 at Tue Sep 17 19:26:53 2024.
 Link1:  Proceeding to internal job step number  2.
 ---------------------------------------------------------
 #N Geom=AllCheck Guess=TCheck SCRF=Check B3LYP/CBSB7 Freq
 ---------------------------------------------------------
 1/10=4,29=7,30=1,38=1,40=1/1,3;
 2/12=2,40=1/2;
 3/5=4,6=6,7=700,11=2,14=-4,16=1,25=1,30=1,70=2,71=2,74=-5,116=-2,140=1/1,2,3;
 4/5=101/1;
 5/5=2,98=1/2;
 8/6=4,10=90,11=11/1;
 11/6=1,8=1,9=11,15=111,16=1/1,2,10;
 10/6=1/2;
 6/7=2,8=2,9=2,10=2,18=1,28=1/1;
 7/8=1,10=1,25=1/1,2,3,16;
 1/10=4,30=1/3;
 99//99;
 Structure from the checkpoint file:  "C:\Users\OEM\Downloads\G09W\Scratch\gxx.chk"
 -----------------------
 BH3 CBS-QB3 calculation
 -----------------------
 Charge =  0 Multiplicity = 1
 Redundant internal coordinates found in file.
 B,0,0.,0.,0.
 H,0,0.,1.18957,0.
 H,0,1.0302,-0.59479,0.
 H,0,-1.0302,-0.59479,0.
 Recover connectivity data from disk.

 GradGradGradGradGradGradGradGradGradGradGradGradGradGradGradGradGradGrad
 Berny optimization.
 Initialization pass.
                           ----------------------------
                           !    Initial Parameters    !
                           ! (Angstroms and Degrees)  !
 --------------------------                            --------------------------
 ! Name  Definition              Value          Derivative Info.                !
 --------------------------------------------------------------------------------
 ! R1    R(1,2)                  1.1896         calculate D2E/DX2 analytically  !
 ! R2    R(1,3)                  1.1896         calculate D2E/DX2 analytically  !
 ! R3    R(1,4)                  1.1896         calculate D2E/DX2 analytically  !
 ! A1    A(2,1,3)              120.0002         calculate D2E/DX2 analytically  !
 ! A2    A(2,1,4)              120.0002         calculate D2E/DX2 analytically  !
 ! A3    A(3,1,4)              119.9997         calculate D2E/DX2 analytically  !
 ! D1    D(2,1,4,3)            180.0            calculate D2E/DX2 analytically  !
 --------------------------------------------------------------------------------
 Trust Radius=3.00D-01 FncErr=1.00D-07 GrdErr=1.00D-07
 Number of steps in this run=      2 maximum allowed number of steps=      2.
 GradGradGradGradGradGradGradGradGradGradGradGradGradGradGradGradGradGrad

                          Input orientation:                          
 ---------------------------------------------------------------------
 Center     Atomic      Atomic             Coordinates (Angstroms)
 Number     Number       Type             X           Y           Z
 ---------------------------------------------------------------------
      1          5           0        0.000000    0.000000    0.000000
      2          1           0        0.000000    1.189570    0.000000
      3          1           0        1.030200   -0.594790    0.000000
      4          1           0       -1.030200   -0.594790    0.000000
 ---------------------------------------------------------------------
                    Distance matrix (angstroms):
                    1          2          3          4
     1  B    0.000000
     2  H    1.189570   0.000000
     3  H    1.189574   2.060401   0.000000
     4  H    1.189574   2.060401   2.060400   0.000000
 Stoichiometry    BH3
 Framework group  C2V[C2(BH),SGV(H2)]
 Deg. of freedom     3
 Full point group                 C2V     NOp   4
 Largest Abelian subgroup         C2V     NOp   4
 Largest concise Abelian subgroup C2      NOp   2
                         Standard orientation:                         
 ---------------------------------------------------------------------
 Center     Atomic      Atomic             Coordinates (Angstroms)
 Number     Number       Type             X           Y           Z
 ---------------------------------------------------------------------
      1          5           0        0.000000    0.000000    0.000001
      2          1           0        0.000000    0.000000    1.189571
      3          1           0        0.000000    1.030200   -0.594789
      4          1           0        0.000000   -1.030200   -0.594789
 ---------------------------------------------------------------------
 Rotational constants (GHZ):    236.2430093    236.2426762    118.1214214
 Standard basis: 6-311G(2d,d,p) (5D, 7F)
 There are    19 symmetry adapted cartesian basis functions of A1  symmetry.
 There are     2 symmetry adapted cartesian basis functions of A2  symmetry.
 There are     6 symmetry adapted cartesian basis functions of B1  symmetry.
 There are    10 symmetry adapted cartesian basis functions of B2  symmetry.
 There are    18 symmetry adapted basis functions of A1  symmetry.
 There are     2 symmetry adapted basis functions of A2  symmetry.
 There are     6 symmetry adapted basis functions of B1  symmetry.
 There are    10 symmetry adapted basis functions of B2  symmetry.
    36 basis functions,    56 primitive gaussians,    37 cartesian basis functions
     4 alpha electrons        4 beta electrons
       nuclear repulsion energy         7.4431922888 Hartrees.
 NAtoms=    4 NActive=    4 NUniq=    3 SFac= 1.78D+00 NAtFMM=   60 NAOKFM=F Big=F
 Integral buffers will be    262144 words long.
 Raffenetti 2 integral format.
 Two-electron integral symmetry is turned on.
 One-electron integrals computed using PRISM.
 NBasis=    36 RedAO= T EigKep=  1.70D-02  NBF=    18     2     6    10
 NBsUse=    36 1.00D-06 EigRej= -1.00D+00 NBFU=    18     2     6    10
 Initial guess from the checkpoint file:  "C:\Users\OEM\Downloads\G09W\Scratch\gxx.chk"
 B after Tr=     0.000000    0.000000    0.000000
         Rot=    1.000000    0.000000    0.000000    0.000000 Ang=   0.00 deg.
 Initial guess orbital symmetries:
       Occupied  (A1) (A1) (A1) (B2)
       Virtual   (B1) (A1) (B2) (A1) (A1) (B2) (A1) (B1) (B2) (A1)
                 (A1) (A2) (B1) (A1) (A1) (B2) (B2) (B1) (A2) (B1)
                 (A1) (B2) (B1) (A1) (B2) (A1) (B2) (A1) (A1) (A1)
                 (B2) (A1)
 Keep R1 ints in memory in symmetry-blocked form, NReq=1103102.
 Requested convergence on RMS density matrix=1.00D-08 within 128 cycles.
 Requested convergence on MAX density matrix=1.00D-06.
 Requested convergence on             energy=1.00D-06.
 No special actions if energy rises.
 SCF Done:  E(RB3LYP) =  -26.6211130120     A.U. after    1 cycles
            NFock=  1  Conv=0.11D-08     -V/T= 2.0073
 DoSCS=F DFT=T ScalE2(SS,OS)=  1.000000  1.000000
 Range of M.O.s used for correlation:     1    36
 NBasis=    36 NAE=     4 NBE=     4 NFC=     0 NFV=     0
 NROrb=     36 NOA=     4 NOB=     4 NVA=    32 NVB=    32
 Symmetrizing basis deriv contribution to polar:
 IMax=3 JMax=2 DiffMx= 0.00D+00
 G2DrvN: will do     5 centers at a time, making    1 passes.
 Calling FoFCou, ICntrl=  3107 FMM=F I1Cent=   0 AccDes= 0.00D+00.
 End of G2Drv F.D. properties file   721 does not exist.
 End of G2Drv F.D. properties file   722 does not exist.
 End of G2Drv F.D. properties file   788 does not exist.
          IDoAtm=1111
          Differentiating once with respect to electric field.
                with respect to dipole field.
          Differentiating once with respect to nuclear coordinates.
 Keep R1 ints in memory in symmetry-blocked form, NReq=1079568.
          There are    12 degrees of freedom in the 1st order CPHF.  IDoFFX=4 NUNeed=    12.
     12 vectors produced by pass  0 Test12= 1.07D-15 8.33D-09 XBig12= 1.03D+01 2.21D+00.
 AX will form    12 AO Fock derivatives at one time.
     12 vectors produced by pass  1 Test12= 1.07D-15 8.33D-09 XBig12= 1.13D-01 1.75D-01.
     12 vectors produced by pass  2 Test12= 1.07D-15 8.33D-09 XBig12= 2.82D-04 9.23D-03.
     12 vectors produced by pass  3 Test12= 1.07D-15 8.33D-09 XBig12= 1.65D-06 6.26D-04.
     10 vectors produced by pass  4 Test12= 1.07D-15 8.33D-09 XBig12= 7.24D-10 9.25D-06.
      3 vectors produced by pass  5 Test12= 1.07D-15 8.33D-09 XBig12= 3.30D-13 2.61D-07.
 InvSVY:  IOpt=1 It=  1 EMax= 8.88D-16
 Solved reduced A of dimension    61 with    12 vectors.
 Isotropic polarizability for W=    0.000000       15.40 Bohr**3.
 End of Minotr F.D. properties file   721 does not exist.
 End of Minotr F.D. properties file   722 does not exist.
 End of Minotr F.D. properties file   788 does not exist.

 **********************************************************************

            Population analysis using the SCF density.

 **********************************************************************

 Orbital symmetries:
       Occupied  (A1) (A1) (A1) (B2)
       Virtual   (B1) (A1) (B2) (A1) (A1) (B2) (A1) (B1) (B2) (A1)
                 (A1) (A2) (B1) (A1) (A1) (B2) (B2) (B1) (A2) (B1)
                 (A1) (B2) (B1) (A1) (B2) (A1) (B2) (A1) (A1) (A1)
                 (B2) (A1)
 The electronic state is 1-A1.
 Alpha  occ. eigenvalues --   -6.76428  -0.51912  -0.35833  -0.35833
 Alpha virt. eigenvalues --   -0.07934   0.08920   0.12606   0.12606   0.21244
 Alpha virt. eigenvalues --    0.21244   0.27108   0.30320   0.50557   0.50557
 Alpha virt. eigenvalues --    0.54067   0.76169   0.76169   1.03768   1.04570
 Alpha virt. eigenvalues --    1.04570   1.34795   1.52362   1.73460   1.73461
 Alpha virt. eigenvalues --    1.79847   1.79847   1.81569   1.96872   1.96872
 Alpha virt. eigenvalues --    2.11050   2.47040   2.47040   2.67707   2.70331
 Alpha virt. eigenvalues --    2.70331  14.46067
          Condensed to atoms (all electrons):
               1          2          3          4
     1  B    3.703490   0.415148   0.415146   0.415146
     2  H    0.415148   0.659769  -0.028949  -0.028949
     3  H    0.415146  -0.028949   0.659777  -0.028949
     4  H    0.415146  -0.028949  -0.028949   0.659777
 Mulliken charges:
               1
     1  B    0.051070
     2  H   -0.017019
     3  H   -0.017025
     4  H   -0.017025
 Sum of Mulliken charges =   0.00000
 Mulliken charges with hydrogens summed into heavy atoms:
               1
     1  B    0.000000
 APT charges:
               1
     1  B    0.513725
     2  H   -0.171226
     3  H   -0.171250
     4  H   -0.171250
 Sum of APT charges =   0.00000
 APT charges with hydrogens summed into heavy atoms:
               1
     1  B    0.000000
 Electronic spatial extent (au):  <R**2>=             34.4954
 Charge=              0.0000 electrons
 Dipole moment (field-independent basis, Debye):
    X=              0.0000    Y=              0.0000    Z=              0.0000  Tot=              0.0000
 Quadrupole moment (field-independent basis, Debye-Ang):
   XX=             -7.1992   YY=             -9.4038   ZZ=             -9.4037
   XY=              0.0000   XZ=              0.0000   YZ=              0.0000
 Traceless Quadrupole moment (field-independent basis, Debye-Ang):
   XX=              1.4697   YY=             -0.7348   ZZ=             -0.7348
   XY=              0.0000   XZ=              0.0000   YZ=              0.0000
 Octapole moment (field-independent basis, Debye-Ang**2):
  XXX=              0.0000  YYY=              0.0000  ZZZ=              0.1149  XYY=              0.0000
  XXY=              0.0000  XXZ=              0.0000  XZZ=              0.0000  YZZ=              0.0000
  YYZ=             -0.1148  XYZ=              0.0000
 Hexadecapole moment (field-independent basis, Debye-Ang**3):
 XXXX=             -7.6283 YYYY=            -24.9609 ZZZZ=            -24.9608 XXXY=              0.0000
 XXXZ=              0.0000 YYYX=              0.0000 YYYZ=              0.0000 ZZZX=              0.0000
 ZZZY=              0.0000 XXYY=             -5.6785 XXZZ=             -5.6785 YYZZ=             -8.3203
 XXYZ=              0.0000 YYXZ=              0.0000 ZZXY=              0.0000
 N-N= 7.443192288796D+00 E-N=-7.555069933277D+01  KE= 2.642827034214D+01
 Symmetry A1   KE= 2.495549058597D+01
 Symmetry A2   KE= 2.486490720803D-35
 Symmetry B1   KE= 4.132584506296D-33
 Symmetry B2   KE= 1.472779756165D+00
  Exact polarizability:   9.397   0.000  18.402   0.000   0.000  18.402
 Approx polarizability:  12.669   0.000  21.035   0.000   0.000  21.035
 Calling FoFJK, ICntrl=    100127 FMM=F ISym2X=1 I1Cent= 0 IOpClX= 0 NMat=1 NMatS=1 NMatT=0.
 Full mass-weighted force constant matrix:
 Low frequencies ---  -27.7681  -19.6896  -18.4923   -0.0008   -0.0007   -0.0007
 Low frequencies --- 1157.8737 1197.7864 1197.7996
 Diagonal vibrational polarizability:
        1.7741626       0.7503529       0.7499767
 Harmonic frequencies (cm**-1), IR intensities (KM/Mole), Raman scattering
 activities (A**4/AMU), depolarization ratios for plane and unpolarized
 incident light, reduced masses (AMU), force constants (mDyne/A),
 and normal coordinates:
                      1                      2                      3
                     B1                     A1                     B2
 Frequencies --   1157.8737              1197.7864              1197.7996
 Red. masses --      1.2531                 1.1076                 1.1076
 Frc consts  --      0.9898                 0.9362                 0.9362
 IR Inten    --     88.3858                14.1427                14.1562
  Atom  AN      X      Y      Z        X      Y      Z        X      Y      Z
     1   5     0.16   0.00   0.00     0.00   0.00   0.10     0.00  -0.10   0.00
     2   1    -0.57   0.00   0.00     0.00   0.00   0.08     0.00   0.81   0.00
     3   1    -0.57   0.00   0.00     0.00  -0.39  -0.59     0.00   0.14   0.39
     4   1    -0.57   0.00   0.00     0.00   0.39  -0.59     0.00   0.14  -0.39
                      4                      5                      6
                     A1                     B2                     A1
 Frequencies --   2554.6384              2683.7900              2683.8760
 Red. masses --      1.0078                 1.1269                 1.1269
 Frc consts  --      3.8752                 4.7823                 4.7827
 IR Inten    --      0.0000               129.7623               129.7361
  Atom  AN      X      Y      Z        X      Y      Z        X      Y      Z
     1   5     0.00   0.00   0.00     0.00   0.11   0.00     0.00   0.00   0.11
     2   1     0.00   0.00   0.58     0.00   0.02   0.00     0.00   0.00  -0.81
     3   1     0.00   0.50  -0.29     0.00  -0.60   0.36     0.00   0.36  -0.19
     4   1     0.00  -0.50  -0.29     0.00  -0.60  -0.36     0.00  -0.36  -0.19

 -------------------
 - Thermochemistry -
 -------------------
 Temperature   298.150 Kelvin.  Pressure   1.00000 Atm.
 Atom     1 has atomic number  5 and mass  11.00931
 Atom     2 has atomic number  1 and mass   1.00783
 Atom     3 has atomic number  1 and mass   1.00783
 Atom     4 has atomic number  1 and mass   1.00783
 Molecular mass:    14.03278 amu.
 Principal axes and moments of inertia in atomic units:
                           1         2         3
     Eigenvalues --     7.63934   7.63935  15.27870
           X            0.00000   0.00000   1.00000
           Y            0.00000   1.00000   0.00000
           Z            1.00000   0.00000   0.00000
 This molecule is an asymmetric top.
 Rotational symmetry number  2.
 Rotational temperatures (Kelvin)     11.33786    11.33785     5.66893
 Rotational constants (GHZ):         236.24301   236.24268   118.12142
 Zero-point vibrational energy      68640.3 (Joules/Mol)
                                   16.40543 (Kcal/Mol)
 Vibrational temperatures:   1665.92  1723.35  1723.36  3675.55  3861.37
          (Kelvin)           3861.49
 
 Zero-point correction=                           0.026144 (Hartree/Particle)
 Thermal correction to Energy=                    0.029030
 Thermal correction to Enthalpy=                  0.029974
 Thermal correction to Gibbs Free Energy=         0.007561
 Sum of electronic and zero-point Energies=            -26.594969
 Sum of electronic and thermal Energies=               -26.592083
 Sum of electronic and thermal Enthalpies=             -26.591139
 Sum of electronic and thermal Free Energies=          -26.613552
 
                     E (Thermal)             CV                S
                      KCal/Mol        Cal/Mol-Kelvin    Cal/Mol-Kelvin
 Total                   18.217              6.611             47.172
 Electronic               0.000              0.000              0.000
 Translational            0.889              2.981             33.864
 Rotational               0.889              2.981             13.175
 Vibrational             16.439              0.650              0.133
                       Q            Log10(Q)             Ln(Q)
 Total Bot       0.332781D-03         -3.477842         -8.008027
 Total V=0       0.352701D+09          8.547406         19.681130
 Vib (Bot)       0.952953D-12        -12.020928        -27.679211
 Vib (V=0)       0.101000D+01          0.004320          0.009946
 Electronic      0.100000D+01          0.000000          0.000000
 Translational   0.206619D+07          6.315171         14.541218
 Rotational      0.169011D+03          2.227916          5.129966
 ***** Axes restored to original set *****
 -------------------------------------------------------------------
 Center     Atomic                   Forces (Hartrees/Bohr)
 Number     Number              X              Y              Z
 -------------------------------------------------------------------
      1        5           0.000000000   -0.000005243    0.000000000
      2        1           0.000000000    0.000039070    0.000000000
      3        1           0.000033052   -0.000016913    0.000000000
      4        1          -0.000033052   -0.000016913    0.000000000
 -------------------------------------------------------------------
 Cartesian Forces:  Max     0.000039070 RMS     0.000018954
 FormGI is forming the generalized inverse of G from B-inverse, IUseBI=4.

 GradGradGradGradGradGradGradGradGradGradGradGradGradGradGradGradGradGrad
 Berny optimization.
 Internal  Forces:  Max     0.000039070 RMS     0.000024751
 Search for a local minimum.
 Step number   1 out of a maximum of    2
 All quantities printed in internal units (Hartrees-Bohrs-Radians)
 Second derivative matrix not updated -- analytic derivatives used.
 The second derivative matrix:
                          R1        R2        R3        A1        A2
           R1           0.24508
           R2           0.00192   0.24506
           R3           0.00192   0.00192   0.24506
           A1           0.00429   0.00430  -0.00857   0.05494
           A2           0.00429  -0.00857   0.00430  -0.02747   0.05494
           A3          -0.00857   0.00428   0.00428  -0.02747  -0.02747
           D1           0.00000   0.00000   0.00000   0.00000   0.00000
                          A3        D1
           A3           0.05494
           D1           0.00000   0.05070
 ITU=  0
     Eigenvalues ---    0.05070   0.08139   0.08139   0.24417   0.24417
     Eigenvalues ---    0.24891
 Angle between quadratic step and forces=   6.36 degrees.
 Linear search not attempted -- first point.
 Iteration  1 RMS(Cart)=  0.00010045 RMS(Int)=  0.00000000
 Iteration  2 RMS(Cart)=  0.00000000 RMS(Int)=  0.00000000
 ClnCor:  largest displacement from symmetrization is 1.56D-12 for atom     1.
 Variable       Old X    -DE/DX   Delta X   Delta X   Delta X     New X
                                 (Linear)    (Quad)   (Total)
    R1        2.24796   0.00004   0.00000   0.00016   0.00016   2.24812
    R2        2.24797   0.00004   0.00000   0.00015   0.00015   2.24812
    R3        2.24797   0.00004   0.00000   0.00015   0.00015   2.24812
    A1        2.09440   0.00000   0.00000  -0.00002  -0.00002   2.09438
    A2        2.09440   0.00000   0.00000  -0.00002  -0.00002   2.09438
    A3        2.09439   0.00000   0.00000   0.00004   0.00004   2.09442
    D1        3.14159   0.00000   0.00000   0.00000   0.00000   3.14159
         Item               Value     Threshold  Converged?
 Maximum Force            0.000039     0.000450     YES
 RMS     Force            0.000025     0.000300     YES
 Maximum Displacement     0.000148     0.001800     YES
 RMS     Displacement     0.000100     0.001200     YES
 Predicted change in Energy=-8.667010D-09
 Optimization completed.
    -- Stationary point found.
                           ----------------------------
                           !   Optimized Parameters   !
                           ! (Angstroms and Degrees)  !
 --------------------------                            --------------------------
 ! Name  Definition              Value          Derivative Info.                !
 --------------------------------------------------------------------------------
 ! R1    R(1,2)                  1.1896         -DE/DX =    0.0                 !
 ! R2    R(1,3)                  1.1896         -DE/DX =    0.0                 !
 ! R3    R(1,4)                  1.1896         -DE/DX =    0.0                 !
 ! A1    A(2,1,3)              120.0002         -DE/DX =    0.0                 !
 ! A2    A(2,1,4)              120.0002         -DE/DX =    0.0                 !
 ! A3    A(3,1,4)              119.9997         -DE/DX =    0.0                 !
 ! D1    D(2,1,4,3)            180.0            -DE/DX =    0.0                 !
 --------------------------------------------------------------------------------
 GradGradGradGradGradGradGradGradGradGradGradGradGradGradGradGradGradGrad

 1|1|UNPC-ALI-JAO|Freq|RB3LYP|6-311G(2d,d,p)|B1H3|OEM|17-Sep-2024|0||#N
  Geom=AllCheck Guess=TCheck SCRF=Check B3LYP/CBSB7 Freq||BH3 CBS-QB3 c
 alculation||0,1|B,0.,0.,0.|H,0.,1.18957,0.|H,1.0302,-0.59479,0.|H,-1.0
 302,-0.59479,0.||Version=IA32W-G09RevD.01|State=1-A1|HF=-26.621113|RMS
 D=1.107e-009|RMSF=1.895e-005|ZeroPoint=0.0261437|Thermal=0.02903|Dipol
 e=0.,0.000006,0.|DipoleDeriv=0.5387589,0.,0.,0.,0.5386748,0.,0.,0.,0.4
 637426,-0.087451,0.,0.,0.,-0.2716731,0.,0.,0.,-0.1545548,-0.2256539,0.
 0797704,0.,0.0797609,-0.1335009,0.,0.,0.,-0.1545939,-0.2256539,-0.0797
 704,0.,-0.0797609,-0.1335009,0.,0.,0.,-0.1545939|Polar=18.4019871,0.,1
 8.4021161,0.,0.,9.3968532|PG=C02V [C2(B1H1),SGV(H2)]|NImag=0||0.408330
 77,0.,0.40838912,0.,0.,0.12034732,-0.03900101,0.,0.,0.03260006,0.,-0.2
 3324948,0.,0.,0.24507669,0.,0.,-0.04012067,0.,0.,0.01336533,-0.1846648
 8,0.08411525,0.,0.00320048,-0.00119879,0.,0.19193544,0.08411193,-0.087
 56982,0.,0.01698224,-0.00591361,0.,-0.09200531,0.08572771,0.,0.,-0.040
 11333,0.,0.,0.01337767,0.,0.,0.01335313,-0.18466488,-0.08411525,0.,0.0
 0320048,0.00119879,0.,-0.01047104,-0.00908885,0.,0.19193544,-0.0841119
 3,-0.08756982,0.,-0.01698224,-0.00591361,0.,0.00908885,0.00775572,0.,0
 .09200531,0.08572771,0.,0.,-0.04011333,0.,0.,0.01337767,0.,0.,0.013382
 53,0.,0.,0.01335313||0.,0.00000524,0.,0.,-0.00003907,0.,-0.00003305,0.
 00001691,0.,0.00003305,0.00001691,0.|||@


 AND HERE I AM, FOR ALL MY LORE,
 THE WRETCHED FOOL I WAS BEFORE.
 CALLED MASTER OF ARTS, AND DOCTOR TO BOOT,
 FOR TEN YEARS ALMOST I CONFUTE
 AND UP AND DOWN, WHEREVER IT GOES
 I DRAG MY STUDENTS BY THE NOSE --
 AND SEE THAT FOR ALL OUR SCIENCE AND ART
 WE CAN KNOW NOTHING.  IT BURNS MY HEART.

                                       -- FAUST
 Job cpu time:       0 days  0 hours  0 minutes 17.0 seconds.
 File lengths (MBytes):  RWF=      5 Int=      0 D2E=      0 Chk=      1 Scr=      1
 Normal termination of Gaussian 09 at Tue Sep 17 19:27:10 2024.
 Link1:  Proceeding to internal job step number  3.
 -----------------------------------------------------------
 #N Geom=AllCheck Guess=TCheck SCRF=Check CCSD(T)/6-31+G(d')
 -----------------------------------------------------------
 1/29=7,38=1,40=1/1;
 2/12=2,40=1/2;
 3/5=11,6=6,7=11,11=9,14=-4,16=1,25=1,30=1,70=2,116=-2/1,2,3;
 4/5=101/1;
 5/5=2/2;
 8/6=4,9=120000,10=1/1,4;
 9/5=7,14=2/13;
 6/7=2,8=2,9=2,10=2/1;
 99/5=1,9=1/99;
 Structure from the checkpoint file:  "C:\Users\OEM\Downloads\G09W\Scratch\gxx.chk"
 -----------------------
 BH3 CBS-QB3 calculation
 -----------------------
 Charge =  0 Multiplicity = 1
 Redundant internal coordinates found in file.
 B,0,0.,0.,0.
 H,0,0.,1.18957,0.
 H,0,1.0302,-0.59479,0.
 H,0,-1.0302,-0.59479,0.
 Recover connectivity data from disk.
                          Input orientation:                          
 ---------------------------------------------------------------------
 Center     Atomic      Atomic             Coordinates (Angstroms)
 Number     Number       Type             X           Y           Z
 ---------------------------------------------------------------------
      1          5           0        0.000000    0.000000    0.000000
      2          1           0        0.000000    1.189570    0.000000
      3          1           0        1.030200   -0.594790    0.000000
      4          1           0       -1.030200   -0.594790    0.000000
 ---------------------------------------------------------------------
                    Distance matrix (angstroms):
                    1          2          3          4
     1  B    0.000000
     2  H    1.189570   0.000000
     3  H    1.189574   2.060401   0.000000
     4  H    1.189574   2.060401   2.060400   0.000000
 Stoichiometry    BH3
 Framework group  C2V[C2(BH),SGV(H2)]
 Deg. of freedom     3
 Full point group                 C2V     NOp   4
 Largest Abelian subgroup         C2V     NOp   4
 Largest concise Abelian subgroup C2      NOp   2
                         Standard orientation:                         
 ---------------------------------------------------------------------
 Center     Atomic      Atomic             Coordinates (Angstroms)
 Number     Number       Type             X           Y           Z
 ---------------------------------------------------------------------
      1          5           0        0.000000    0.000000    0.000001
      2          1           0        0.000000    0.000000    1.189571
      3          1           0        0.000000    1.030200   -0.594789
      4          1           0        0.000000   -1.030200   -0.594789
 ---------------------------------------------------------------------
 Rotational constants (GHZ):    236.2430093    236.2426762    118.1214214
 Standard basis: 6-31+(d') (6D, 7F)
 There are    14 symmetry adapted cartesian basis functions of A1  symmetry.
 There are     1 symmetry adapted cartesian basis functions of A2  symmetry.
 There are     4 symmetry adapted cartesian basis functions of B1  symmetry.
 There are     6 symmetry adapted cartesian basis functions of B2  symmetry.
 There are    14 symmetry adapted basis functions of A1  symmetry.
 There are     1 symmetry adapted basis functions of A2  symmetry.
 There are     4 symmetry adapted basis functions of B1  symmetry.
 There are     6 symmetry adapted basis functions of B2  symmetry.
    25 basis functions,    44 primitive gaussians,    25 cartesian basis functions
     4 alpha electrons        4 beta electrons
       nuclear repulsion energy         7.4431922888 Hartrees.
 NAtoms=    4 NActive=    4 NUniq=    3 SFac= 1.78D+00 NAtFMM=   60 NAOKFM=F Big=F
 Integral buffers will be    262144 words long.
 Raffenetti 1 integral format.
 Two-electron integral symmetry is turned on.
 One-electron integrals computed using PRISM.
 NBasis=    25 RedAO= T EigKep=  2.82D-02  NBF=    14     1     4     6
 NBsUse=    25 1.00D-06 EigRej= -1.00D+00 NBFU=    14     1     4     6
 Initial guess from the checkpoint file:  "C:\Users\OEM\Downloads\G09W\Scratch\gxx.chk"
 B after Tr=     0.000000    0.000000    0.000000
         Rot=    1.000000    0.000000    0.000000    0.000000 Ang=   0.00 deg.
 Initial guess orbital symmetries:
       Occupied  (A1) (A1) (A1) (B2)
       Virtual   (B1) (A1) (B2) (A1) (A1) (B2) (A1) (B1) (B2) (A1)
                 (A1) (A2) (B1) (A1) (A1) (B2) (B1) (A1) (A1) (A1)
                 (B2)
 Keep R1 ints in memory in symmetry-blocked form, NReq=901166.
 Requested convergence on RMS density matrix=1.00D-08 within 128 cycles.
 Requested convergence on MAX density matrix=1.00D-06.
 Requested convergence on             energy=1.00D-06.
 No special actions if energy rises.
 SCF Done:  E(RHF) =  -26.3896510157     A.U. after    8 cycles
            NFock=  8  Conv=0.12D-08     -V/T= 2.0006
 ExpMin= 3.15D-02 ExpMax= 2.07D+03 ExpMxC= 3.11D+02 IAcc=3 IRadAn=         5 AccDes= 0.00D+00
 HarFok:  IExCor=  205 AccDes= 0.00D+00 IRadAn=         5 IDoV=-2 UseB2=F ITyADJ=14
 ICtDFT= 12500011 ScaDFX=  1.000000  1.000000  1.000000  1.000000
 Range of M.O.s used for correlation:     2    25
 NBasis=    25 NAE=     4 NBE=     4 NFC=     1 NFV=     0
 NROrb=     24 NOA=     3 NOB=     3 NVA=    21 NVB=    21
 Semi-Direct transformation.
 ModeAB=           4 MOrb=             3 LenV=      33397705
 LASXX=         5332 LTotXX=        5332 LenRXX=       11625
 LTotAB=        6293 MaxLAS=       22464 LenRXY=           0
 NonZer=       16957 LenScr=     1048064 LnRSAI=       22464
 LnScr1=     1048064 LExtra=           0 Total=      2130217
 MaxDsk=          -1 SrtSym=           T ITran=            4
 JobTyp=0 Pass  1:  I=   1 to   3.
 (rs|ai) integrals will be sorted in core.
 Spin components of T(2) and E(2):
     alpha-alpha T2 =       0.1912040088D-02 E2=     -0.4540970077D-02
     alpha-beta  T2 =       0.2666568123D-01 E2=     -0.6687601385D-01
     beta-beta   T2 =       0.1912040088D-02 E2=     -0.4540970077D-02
 ANorm=    0.1015130416D+01
 E2 =    -0.7595795401D-01 EUMP2 =    -0.26465608969675D+02
 Keep R2 and R3 ints in memory in symmetry-blocked form, NReq=874896.
 Iterations=  50 Convergence= 0.100D-06
 Iteration Nr.   1
 **********************
 DD1Dir will call FoFMem   1 times, MxPair=        12
 NAB=     6 NAA=     0 NBB=     0.
 MP4(R+Q)=  0.99835266D-03
 E3=       -0.15709829D-01        EUMP3=      -0.26481318798D+02
 E4(DQ)=   -0.29825727D-02        UMP4(DQ)=   -0.26484301371D+02
 E4(SDQ)=  -0.34346591D-02        UMP4(SDQ)=  -0.26484753458D+02
 DE(Corr)= -0.90648713E-01 E(Corr)=     -26.480299729    
 NORM(A)=   0.10239324D+01
 Iteration Nr.   2
 **********************
 DD1Dir will call FoFMem   1 times, MxPair=        12
 NAB=     6 NAA=     0 NBB=     0.
 DE(Corr)= -0.95248604E-01 E(CORR)=     -26.484899619     Delta=-4.60D-03
 NORM(A)=   0.10253028D+01
 Iteration Nr.   3
 **********************
 DD1Dir will call FoFMem   1 times, MxPair=        12
 NAB=     6 NAA=     0 NBB=     0.
 DE(Corr)= -0.95938120E-01 E(CORR)=     -26.485589135     Delta=-6.90D-04
 NORM(A)=   0.10255309D+01
 Iteration Nr.   4
 **********************
 DD1Dir will call FoFMem   1 times, MxPair=        12
 NAB=     6 NAA=     0 NBB=     0.
 DE(Corr)= -0.96048493E-01 E(CORR)=     -26.485699509     Delta=-1.10D-04
 NORM(A)=   0.10255473D+01
 Iteration Nr.   5
 **********************
 DD1Dir will call FoFMem   1 times, MxPair=        12
 NAB=     6 NAA=     0 NBB=     0.
 DE(Corr)= -0.96052679E-01 E(CORR)=     -26.485703695     Delta=-4.19D-06
 NORM(A)=   0.10255466D+01
 Iteration Nr.   6
 **********************
 DD1Dir will call FoFMem   1 times, MxPair=        12
 NAB=     6 NAA=     0 NBB=     0.
 DE(Corr)= -0.96052401E-01 E(CORR)=     -26.485703416     Delta= 2.78D-07
 NORM(A)=   0.10255466D+01
 Iteration Nr.   7
 **********************
 DD1Dir will call FoFMem   1 times, MxPair=        12
 NAB=     6 NAA=     0 NBB=     0.
 DE(Corr)= -0.96052516E-01 E(CORR)=     -26.485703531     Delta=-1.15D-07
 NORM(A)=   0.10255466D+01
 Iteration Nr.   8
 **********************
 DD1Dir will call FoFMem   1 times, MxPair=        12
 NAB=     6 NAA=     0 NBB=     0.
 DE(Corr)= -0.96052544E-01 E(CORR)=     -26.485703559     Delta=-2.81D-08
 NORM(A)=   0.10255466D+01
 Largest amplitude= 3.40D-02
 Time for triples=        0.00 seconds.
 T4(CCSD)= -0.14715346D-02
 T5(CCSD)=  0.63519388D-04
 CCSD(T)= -0.26487111575D+02
 Discarding MO integrals.

 **********************************************************************

            Population analysis using the SCF density.

 **********************************************************************

 Orbital symmetries:
       Occupied  (A1) (A1) (A1) (B2)
       Virtual   (B1) (A1) (A1) (B2) (B1) (B2) (A1) (A1) (A1) (B2)
                 (A1) (B1) (B1) (A2) (B2) (A1) (A1) (A1) (A1) (B2)
                 (A1)
 The electronic state is 1-A1.
 Alpha  occ. eigenvalues --   -7.61329  -0.70484  -0.49850  -0.49850
 Alpha virt. eigenvalues --    0.03768   0.08020   0.09160   0.09160   0.15612
 Alpha virt. eigenvalues --    0.31830   0.31830   0.33623   0.66061   0.66062
 Alpha virt. eigenvalues --    0.71991   0.73717   1.00946   1.00946   1.03530
 Alpha virt. eigenvalues --    1.03530   1.07889   1.52384   1.82132   1.82133
 Alpha virt. eigenvalues --    2.34859
          Condensed to atoms (all electrons):
               1          2          3          4
     1  B    3.798981   0.420692   0.420692   0.420692
     2  H    0.420692   0.597753  -0.019399  -0.019399
     3  H    0.420692  -0.019399   0.597755  -0.019399
     4  H    0.420692  -0.019399  -0.019399   0.597755
 Mulliken charges:
               1
     1  B   -0.061057
     2  H    0.020353
     3  H    0.020352
     4  H    0.020352
 Sum of Mulliken charges =   0.00000
 Mulliken charges with hydrogens summed into heavy atoms:
               1
     1  B    0.000000
 Electronic spatial extent (au):  <R**2>=             34.5210
 Charge=              0.0000 electrons
 Dipole moment (field-independent basis, Debye):
    X=              0.0000    Y=              0.0000    Z=              0.0000  Tot=              0.0000
 Quadrupole moment (field-independent basis, Debye-Ang):
   XX=             -7.0844   YY=             -9.4784   ZZ=             -9.4784
   XY=              0.0000   XZ=              0.0000   YZ=              0.0000
 Traceless Quadrupole moment (field-independent basis, Debye-Ang):
   XX=              1.5960   YY=             -0.7980   ZZ=             -0.7980
   XY=              0.0000   XZ=              0.0000   YZ=              0.0000
 Octapole moment (field-independent basis, Debye-Ang**2):
  XXX=              0.0000  YYY=              0.0000  ZZZ=             -0.0244  XYY=              0.0000
  XXY=              0.0000  XXZ=              0.0000  XZZ=              0.0000  YZZ=              0.0000
  YYZ=              0.0244  XYZ=              0.0000
 Hexadecapole moment (field-independent basis, Debye-Ang**3):
 XXXX=             -7.1234 YYYY=            -24.6210 ZZZZ=            -24.6209 XXXY=              0.0000
 XXXZ=              0.0000 YYYX=              0.0000 YYYZ=              0.0000 ZZZX=              0.0000
 ZZZY=              0.0000 XXYY=             -5.5011 XXZZ=             -5.5011 YYZZ=             -8.2070
 XXYZ=              0.0000 YYXZ=              0.0000 ZZXY=              0.0000
 N-N= 7.443192288796D+00 E-N=-7.541021551851D+01  KE= 2.637479048558D+01
 Symmetry A1   KE= 2.494048842709D+01
 Symmetry A2   KE= 1.335041480292D-34
 Symmetry B1   KE= 4.291140129597D-33
 Symmetry B2   KE= 1.434302058492D+00
 1|1|UNPC-ALI-JAO|SP|RCCSD(T)-FC|6-31+(d')|B1H3|OEM|17-Sep-2024|0||#N G
 eom=AllCheck Guess=TCheck SCRF=Check CCSD(T)/6-31+G(d')||BH3 CBS-QB3 c
 alculation||0,1|B,0,0.,0.,0.|H,0,0.,1.18957,0.|H,0,1.0302,-0.59479,0.|
 H,0,-1.0302,-0.59479,0.||Version=IA32W-G09RevD.01|State=1-A1|HF=-26.38
 9651|MP2=-26.465609|MP3=-26.4813188|MP4D=-26.4852997|MP4DQ=-26.4843014
 |MP4SDQ=-26.4847535|CCSD=-26.4857036|CCSD(T)=-26.4871116|RMSD=1.188e-0
 09|PG=C02V [C2(B1H1),SGV(H2)]||@


 AND HERE I AM, FOR ALL MY LORE,
 THE WRETCHED FOOL I WAS BEFORE.
 CALLED MASTER OF ARTS, AND DOCTOR TO BOOT,
 FOR TEN YEARS ALMOST I CONFUTE
 AND UP AND DOWN, WHEREVER IT GOES
 I DRAG MY STUDENTS BY THE NOSE --
 AND SEE THAT FOR ALL OUR SCIENCE AND ART
 WE CAN KNOW NOTHING.  IT BURNS MY HEART.

                                       -- FAUST
 Job cpu time:       0 days  0 hours  0 minutes  8.0 seconds.
 File lengths (MBytes):  RWF=     22 Int=      0 D2E=      0 Chk=      1 Scr=      1
 Normal termination of Gaussian 09 at Tue Sep 17 19:27:18 2024.
 Link1:  Proceeding to internal job step number  4.
 -----------------------------------------------------
 #N Geom=AllCheck Guess=TCheck SCRF=Check MP4SDQ/CBSB4
 -----------------------------------------------------
 1/29=7,38=1,40=1/1;
 2/12=2,40=1/2;
 3/5=13,11=9,14=-4,16=1,25=1,30=1,70=2,116=-2/1,2,3;
 4/5=101/1;
 5/5=2/2;
 8/6=3,9=120000,10=1/1,4;
 9/5=4/13;
 6/7=2,8=2,9=2,10=2/1;
 99/5=1,9=1/99;
 Structure from the checkpoint file:  "C:\Users\OEM\Downloads\G09W\Scratch\gxx.chk"
 -----------------------
 BH3 CBS-QB3 calculation
 -----------------------
 Charge =  0 Multiplicity = 1
 Redundant internal coordinates found in file.
 B,0,0.,0.,0.
 H,0,0.,1.18957,0.
 H,0,1.0302,-0.59479,0.
 H,0,-1.0302,-0.59479,0.
 Recover connectivity data from disk.
                          Input orientation:                          
 ---------------------------------------------------------------------
 Center     Atomic      Atomic             Coordinates (Angstroms)
 Number     Number       Type             X           Y           Z
 ---------------------------------------------------------------------
      1          5           0        0.000000    0.000000    0.000000
      2          1           0        0.000000    1.189570    0.000000
      3          1           0        1.030200   -0.594790    0.000000
      4          1           0       -1.030200   -0.594790    0.000000
 ---------------------------------------------------------------------
                    Distance matrix (angstroms):
                    1          2          3          4
     1  B    0.000000
     2  H    1.189570   0.000000
     3  H    1.189574   2.060401   0.000000
     4  H    1.189574   2.060401   2.060400   0.000000
 Stoichiometry    BH3
 Framework group  C2V[C2(BH),SGV(H2)]
 Deg. of freedom     3
 Full point group                 C2V     NOp   4
 Largest Abelian subgroup         C2V     NOp   4
 Largest concise Abelian subgroup C2      NOp   2
                         Standard orientation:                         
 ---------------------------------------------------------------------
 Center     Atomic      Atomic             Coordinates (Angstroms)
 Number     Number       Type             X           Y           Z
 ---------------------------------------------------------------------
      1          5           0        0.000000    0.000000    0.000001
      2          1           0        0.000000    0.000000    1.189571
      3          1           0        0.000000    1.030200   -0.594789
      4          1           0        0.000000   -1.030200   -0.594789
 ---------------------------------------------------------------------
 Rotational constants (GHZ):    236.2430093    236.2426762    118.1214214
 Standard basis: CBSB4 (6D, 7F)
 There are    17 symmetry adapted cartesian basis functions of A1  symmetry.
 There are     2 symmetry adapted cartesian basis functions of A2  symmetry.
 There are     6 symmetry adapted cartesian basis functions of B1  symmetry.
 There are     9 symmetry adapted cartesian basis functions of B2  symmetry.
 There are    17 symmetry adapted basis functions of A1  symmetry.
 There are     2 symmetry adapted basis functions of A2  symmetry.
 There are     6 symmetry adapted basis functions of B1  symmetry.
 There are     9 symmetry adapted basis functions of B2  symmetry.
    34 basis functions,    53 primitive gaussians,    34 cartesian basis functions
     4 alpha electrons        4 beta electrons
       nuclear repulsion energy         7.4431922888 Hartrees.
 NAtoms=    4 NActive=    4 NUniq=    3 SFac= 1.78D+00 NAtFMM=   60 NAOKFM=F Big=F
 Integral buffers will be    262144 words long.
 Raffenetti 1 integral format.
 Two-electron integral symmetry is turned on.
 One-electron integrals computed using PRISM.
 NBasis=    34 RedAO= T EigKep=  2.68D-02  NBF=    17     2     6     9
 NBsUse=    34 1.00D-06 EigRej= -1.00D+00 NBFU=    17     2     6     9
 Initial guess from the checkpoint file:  "C:\Users\OEM\Downloads\G09W\Scratch\gxx.chk"
 B after Tr=     0.000000    0.000000    0.000000
         Rot=    1.000000    0.000000    0.000000    0.000000 Ang=   0.00 deg.
 Initial guess orbital symmetries:
       Occupied  (A1) (A1) (A1) (B2)
       Virtual   (B1) (A1) (A1) (B2) (B1) (B2) (A1) (A1) (A1) (B2)
                 (A1) (B1) (B1) (A2) (B2) (A1) (A1) (A1) (A1) (B2)
                 (A1) (A1) (A1) (A1) (A2) (B1) (B1) (B2) (B2) (B2)
 Keep R1 ints in memory in symmetry-blocked form, NReq=1029910.
 Requested convergence on RMS density matrix=1.00D-08 within 128 cycles.
 Requested convergence on MAX density matrix=1.00D-06.
 Requested convergence on             energy=1.00D-06.
 No special actions if energy rises.
 SCF Done:  E(RHF) =  -26.3928148628     A.U. after    7 cycles
            NFock=  7  Conv=0.30D-08     -V/T= 2.0008
 ExpMin= 3.15D-02 ExpMax= 2.07D+03 ExpMxC= 3.11D+02 IAcc=3 IRadAn=         5 AccDes= 0.00D+00
 HarFok:  IExCor=  205 AccDes= 0.00D+00 IRadAn=         5 IDoV=-2 UseB2=F ITyADJ=14
 ICtDFT= 12500011 ScaDFX=  1.000000  1.000000  1.000000  1.000000
 Range of M.O.s used for correlation:     2    34
 NBasis=    34 NAE=     4 NBE=     4 NFC=     1 NFV=     0
 NROrb=     33 NOA=     3 NOB=     3 NVA=    30 NVB=    30
 Semi-Direct transformation.
 ModeAB=           4 MOrb=             3 LenV=      33390965
 LASXX=         2975 LTotXX=        2975 LenRXX=        6599
 LTotAB=        3624 MaxLAS=       48708 LenRXY=           0
 NonZer=        9574 LenScr=     1048064 LnRSAI=       48708
 LnScr1=     1048064 LExtra=           0 Total=      2151435
 MaxDsk=          -1 SrtSym=           T ITran=            3
 JobTyp=0 Pass  1:  I=   1 to   3.
 (rs|ai) integrals will be sorted in core.
 Spin components of T(2) and E(2):
     alpha-alpha T2 =       0.2029890129D-02 E2=     -0.4937846915D-02
     alpha-beta  T2 =       0.3157139847D-01 E2=     -0.8625450679D-01
     beta-beta   T2 =       0.2029890129D-02 E2=     -0.4937846915D-02
 ANorm=    0.1017659658D+01
 E2 =    -0.9613020062D-01 EUMP2 =    -0.26488945063456D+02
 Keep R2 and R3 ints in memory in symmetry-blocked form, NReq=999672.
 DD1Dir will call FoFMem   1 times, MxPair=        12
 NAB=     6 NAA=     0 NBB=     0.
 MP4(R+Q)=  0.15010205D-02
 E3=       -0.19184514D-01        EUMP3=      -0.26508129577D+02
 E4(DQ)=   -0.33060144D-02        UMP4(DQ)=   -0.26511435592D+02
 E4(SDQ)=  -0.35314721D-02        UMP4(SDQ)=  -0.26511661050D+02
 Largest amplitude= 2.56D-02
 Discarding MO integrals.

 **********************************************************************

            Population analysis using the SCF density.

 **********************************************************************

 Orbital symmetries:
       Occupied  (A1) (A1) (A1) (B2)
       Virtual   (B1) (A1) (A1) (B2) (B1) (B2) (A1) (A1) (A1) (B2)
                 (A1) (B1) (B1) (A2) (B2) (A1) (A1) (A1) (B2) (A1)
                 (B2) (B1) (A2) (B1) (A1) (B2) (A1) (A1) (B2) (A1)
 The electronic state is 1-A1.
 Alpha  occ. eigenvalues --   -7.61383  -0.70454  -0.49780  -0.49780
 Alpha virt. eigenvalues --    0.03738   0.07936   0.09149   0.09149   0.15644
 Alpha virt. eigenvalues --    0.31580   0.31580   0.33552   0.65504   0.65504
 Alpha virt. eigenvalues --    0.71875   0.73370   0.97768   0.97768   0.98585
 Alpha virt. eigenvalues --    0.98586   1.04279   1.49950   1.61248   1.64590
 Alpha virt. eigenvalues --    1.64590   1.85046   2.00199   2.00199   2.33581
 Alpha virt. eigenvalues --    2.35333   2.35333   2.66279   2.77289   2.77289
          Condensed to atoms (all electrons):
               1          2          3          4
     1  B    3.568364   0.424104   0.424104   0.424104
     2  H    0.424104   0.669500  -0.020248  -0.020248
     3  H    0.424104  -0.020248   0.669501  -0.020248
     4  H    0.424104  -0.020248  -0.020248   0.669501
 Mulliken charges:
               1
     1  B    0.159325
     2  H   -0.053108
     3  H   -0.053109
     4  H   -0.053109
 Sum of Mulliken charges =   0.00000
 Mulliken charges with hydrogens summed into heavy atoms:
               1
     1  B    0.000000
 Electronic spatial extent (au):  <R**2>=             34.5028
 Charge=              0.0000 electrons
 Dipole moment (field-independent basis, Debye):
    X=              0.0000    Y=              0.0000    Z=              0.0000  Tot=              0.0000
 Quadrupole moment (field-independent basis, Debye-Ang):
   XX=             -7.0774   YY=             -9.4696   ZZ=             -9.4696
   XY=              0.0000   XZ=              0.0000   YZ=              0.0000
 Traceless Quadrupole moment (field-independent basis, Debye-Ang):
   XX=              1.5948   YY=             -0.7974   ZZ=             -0.7974
   XY=              0.0000   XZ=              0.0000   YZ=              0.0000
 Octapole moment (field-independent basis, Debye-Ang**2):
  XXX=              0.0000  YYY=              0.0000  ZZZ=             -0.0341  XYY=              0.0000
  XXY=              0.0000  XXZ=              0.0000  XZZ=              0.0000  YZZ=              0.0000
  YYZ=              0.0341  XYZ=              0.0000
 Hexadecapole moment (field-independent basis, Debye-Ang**3):
 XXXX=             -7.0371 YYYY=            -24.8270 ZZZZ=            -24.8269 XXXY=              0.0000
 XXXZ=              0.0000 YYYX=              0.0000 YYYZ=              0.0000 ZZZX=              0.0000
 ZZZY=              0.0000 XXYY=             -5.5340 XXZZ=             -5.5340 YYZZ=             -8.2756
 XXYZ=              0.0000 YYXZ=              0.0000 ZZXY=              0.0000
 N-N= 7.443192288796D+00 E-N=-7.541710212663D+01  KE= 2.637303411917D+01
 Symmetry A1   KE= 2.494378971085D+01
 Symmetry A2   KE= 6.829333889707D-35
 Symmetry B1   KE= 3.940449041020D-33
 Symmetry B2   KE= 1.429244408319D+00
 1|1|UNPC-ALI-JAO|SP|RMP4SDQ-FC|CBSB4|B1H3|OEM|17-Sep-2024|0||#N Geom=A
 llCheck Guess=TCheck SCRF=Check MP4SDQ/CBSB4||BH3 CBS-QB3 calculation|
 |0,1|B,0,0.,0.,0.|H,0,0.,1.18957,0.|H,0,1.0302,-0.59479,0.|H,0,-1.0302
 ,-0.59479,0.||Version=IA32W-G09RevD.01|State=1-A1|HF=-26.3928149|MP2=-
 26.4889451|MP3=-26.5081296|MP4D=-26.5129366|MP4DQ=-26.5114356|MP4SDQ=-
 26.511661|RMSD=2.989e-009|PG=C02V [C2(B1H1),SGV(H2)]||@


 AND HERE I AM, FOR ALL MY LORE,
 THE WRETCHED FOOL I WAS BEFORE.
 CALLED MASTER OF ARTS, AND DOCTOR TO BOOT,
 FOR TEN YEARS ALMOST I CONFUTE
 AND UP AND DOWN, WHEREVER IT GOES
 I DRAG MY STUDENTS BY THE NOSE --
 AND SEE THAT FOR ALL OUR SCIENCE AND ART
 WE CAN KNOW NOTHING.  IT BURNS MY HEART.

                                       -- FAUST
 Job cpu time:       0 days  0 hours  0 minutes  2.0 seconds.
 File lengths (MBytes):  RWF=     22 Int=      0 D2E=      0 Chk=      1 Scr=      1
 Normal termination of Gaussian 09 at Tue Sep 17 19:27:20 2024.
 Link1:  Proceeding to internal job step number  5.
 ----------------------------------------------------------------------
 #N Geom=AllCheck Guess=TCheck SCRF=Check MP2/CBSB3 CBSExtrap=(NMin=10,
 MinPop)
 ----------------------------------------------------------------------
 1/29=7,38=1,40=1/1;
 2/12=2,40=1/2;
 3/5=12,11=9,14=-4,16=1,25=1,30=1,70=2,116=-2/1,2,3;
 4/5=101/1;
 5/5=2/2;
 8/10=1/1;
 9/16=-3,75=2,81=10,83=4/6,4;
 6/7=2,8=2,9=2,10=2/1;
 99/5=1,9=1/99;
 Structure from the checkpoint file:  "C:\Users\OEM\Downloads\G09W\Scratch\gxx.chk"
 -----------------------
 BH3 CBS-QB3 calculation
 -----------------------
 Charge =  0 Multiplicity = 1
 Redundant internal coordinates found in file.
 B,0,0.,0.,0.
 H,0,0.,1.18957,0.
 H,0,1.0302,-0.59479,0.
 H,0,-1.0302,-0.59479,0.
 Recover connectivity data from disk.
                          Input orientation:                          
 ---------------------------------------------------------------------
 Center     Atomic      Atomic             Coordinates (Angstroms)
 Number     Number       Type             X           Y           Z
 ---------------------------------------------------------------------
      1          5           0        0.000000    0.000000    0.000000
      2          1           0        0.000000    1.189570    0.000000
      3          1           0        1.030200   -0.594790    0.000000
      4          1           0       -1.030200   -0.594790    0.000000
 ---------------------------------------------------------------------
                    Distance matrix (angstroms):
                    1          2          3          4
     1  B    0.000000
     2  H    1.189570   0.000000
     3  H    1.189574   2.060401   0.000000
     4  H    1.189574   2.060401   2.060400   0.000000
 Stoichiometry    BH3
 Framework group  C2V[C2(BH),SGV(H2)]
 Deg. of freedom     3
 Full point group                 C2V     NOp   4
 Largest Abelian subgroup         C2V     NOp   4
 Largest concise Abelian subgroup C2      NOp   2
                         Standard orientation:                         
 ---------------------------------------------------------------------
 Center     Atomic      Atomic             Coordinates (Angstroms)
 Number     Number       Type             X           Y           Z
 ---------------------------------------------------------------------
      1          5           0        0.000000    0.000000    0.000001
      2          1           0        0.000000    0.000000    1.189571
      3          1           0        0.000000    1.030200   -0.594789
      4          1           0        0.000000   -1.030200   -0.594789
 ---------------------------------------------------------------------
 Rotational constants (GHZ):    236.2430093    236.2426762    118.1214214
 Standard basis: CBSB3 (5D, 7F)
 There are    32 symmetry adapted cartesian basis functions of A1  symmetry.
 There are     5 symmetry adapted cartesian basis functions of A2  symmetry.
 There are    13 symmetry adapted cartesian basis functions of B1  symmetry.
 There are    19 symmetry adapted cartesian basis functions of B2  symmetry.
 There are    29 symmetry adapted basis functions of A1  symmetry.
 There are     5 symmetry adapted basis functions of A2  symmetry.
 There are    12 symmetry adapted basis functions of B1  symmetry.
 There are    18 symmetry adapted basis functions of B2  symmetry.
    64 basis functions,    88 primitive gaussians,    69 cartesian basis functions
     4 alpha electrons        4 beta electrons
       nuclear repulsion energy         7.4431922888 Hartrees.
 NAtoms=    4 NActive=    4 NUniq=    3 SFac= 1.78D+00 NAtFMM=   60 NAOKFM=F Big=F
 Integral buffers will be    262144 words long.
 Raffenetti 1 integral format.
 Two-electron integral symmetry is turned on.
 One-electron integrals computed using PRISM.
 NBasis=    64 RedAO= T EigKep=  1.58D-03  NBF=    29     5    12    18
 NBsUse=    64 1.00D-06 EigRej= -1.00D+00 NBFU=    29     5    12    18
 Initial guess from the checkpoint file:  "C:\Users\OEM\Downloads\G09W\Scratch\gxx.chk"
 B after Tr=     0.000000    0.000000    0.000000
         Rot=    1.000000    0.000000    0.000000    0.000000 Ang=   0.00 deg.
 Initial guess orbital symmetries:
       Occupied  (A1) (A1) (A1) (B2)
       Virtual   (A1) (A1) (A1) (A1) (A1) (A1) (A1) (A1) (A1) (A1)
                 (A1) (A1) (A1) (A1) (A1) (A1) (A1) (A1) (A1) (A1)
                 (A1) (A1) (A1) (A1) (A1) (A1) (A2) (A2) (A2) (A2)
                 (A2) (B1) (B1) (B1) (B1) (B1) (B1) (B1) (B1) (B1)
                 (B1) (B1) (B1) (B2) (B2) (B2) (B2) (B2) (B2) (B2)
                 (B2) (B2) (B2) (B2) (B2) (B2) (B2) (B2) (B2) (B2)
 Keep R1 ints in memory in symmetry-blocked form, NReq=4159405.
 Requested convergence on RMS density matrix=1.00D-08 within 128 cycles.
 Requested convergence on MAX density matrix=1.00D-06.
 Requested convergence on             energy=1.00D-06.
 No special actions if energy rises.
 SCF Done:  E(RHF) =  -26.3992523851     A.U. after    8 cycles
            NFock=  8  Conv=0.34D-09     -V/T= 2.0004
 ExpMin= 3.15D-02 ExpMax= 2.86D+03 ExpMxC= 4.28D+02 IAcc=3 IRadAn=         5 AccDes= 0.00D+00
 HarFok:  IExCor=  205 AccDes= 0.00D+00 IRadAn=         5 IDoV=-2 UseB2=F ITyADJ=14
 ICtDFT= 12500011 ScaDFX=  1.000000  1.000000  1.000000  1.000000
 Range of M.O.s used for correlation:     2    64
 NBasis=    64 NAE=     4 NBE=     4 NFC=     1 NFV=     0
 NROrb=     63 NOA=     3 NOB=     3 NVA=    60 NVB=    60

 **** Warning!!: The largest alpha MO coefficient is  0.20009123D+02

 Disk-based method using OVN memory for  3 occupieds at a time.
 Permanent disk used for amplitudes and <ij||ab> integrals=       75420 words.
 Estimated scratch disk usage=     1398136 words.
 Actual    scratch disk usage=     1398136 words.
 JobTyp=1 Pass  1:  I=   1 to   3 NPSUse=  1 ParTrn=F ParDer=F DoDerP=F.
 (rs|ai) integrals will be sorted in core.
 Spin components of T(2) and E(2):
     alpha-alpha T2 =       0.2256810078D-02 E2=     -0.5624801616D-02
     alpha-beta  T2 =       0.3463281329D-01 E2=     -0.9777205130D-01
     beta-beta   T2 =       0.2256810078D-02 E2=     -0.5624801616D-02
 ANorm=    0.1019385321D+01
 E2 =    -0.1090216545D+00 EUMP2 =    -0.26508274039611D+02

 Complete Basis Set (CBS) Extrapolation:
 M. R. Nyden and G. A. Petersson, JCP 75, 1843 (1981)
 G. A. Petersson and M. A. Al-Laham, JCP 94, 6081 (1991)
 G. A. Petersson, T. Tensfeldt, and J. A. Montgomery, JCP 94, 6091 (1991)
 J. A. Montgomery, J. W. Ochterski, and G. A. Petersson, JCP 101, 5900 (1994)
 
 Minimum Number of PNO for Extrapolation =  10
 Absolute Overlaps: IRadAn =     99590
 LocTrn: ILocal=3 LocCor=F DoCore=F.
 LocMO: Using population method
 Initial Trace= 0.30000000D+01 Initial TraceA= 0.10399161D+01
 RMSG= 0.39997096D-08
 There are a total of      200600 grid points.
 ElSum from         orbitals=        3.9999999973
 E2(CBS)=      -0.120761 CBS-Int=       0.005228 OIii=       1.470332

 **********************************************************************

            Population analysis using the SCF density.

 **********************************************************************

 Orbital symmetries:
       Occupied  (A1) (A1) (A1) (B2)
       Virtual   (B1) (A1) (A1) (B2) (A1) (B2) (A1) (B1) (B2) (A1)
                 (A1) (A1) (B2) (A1) (B1) (A2) (B1) (B2) (A1) (A1)
                 (A1) (B2) (A1) (B2) (B1) (A2) (B1) (B2) (A1) (B2)
                 (A1) (A1) (A1) (B2) (B1) (A1) (B1) (A2) (B1) (A1)
                 (B2) (A2) (B1) (B2) (A1) (A1) (B2) (B2) (A1) (A1)
                 (B1) (A2) (B1) (B2) (A1) (B2) (A1) (B2) (A1) (A1)
 The electronic state is 1-A1.
 Alpha  occ. eigenvalues --   -7.61065  -0.70460  -0.49856  -0.49856
 Alpha virt. eigenvalues --    0.03743   0.06780   0.08112   0.08112   0.10782
 Alpha virt. eigenvalues --    0.10955   0.10955   0.13694   0.29997   0.29997
 Alpha virt. eigenvalues --    0.30156   0.43751   0.43751   0.48255   0.53254
 Alpha virt. eigenvalues --    0.53254   0.55060   0.64422   0.64422   0.67190
 Alpha virt. eigenvalues --    0.80287   0.93252   0.93252   0.94651   1.10067
 Alpha virt. eigenvalues --    1.12061   1.12061   1.39793   1.39793   1.53412
 Alpha virt. eigenvalues --    1.53412   1.63769   2.02340   2.02340   2.08436
 Alpha virt. eigenvalues --    2.10093   2.27784   2.27784   2.34203   2.34621
 Alpha virt. eigenvalues --    2.34621   2.36729   2.36729   2.48550   2.54126
 Alpha virt. eigenvalues --    2.96729   2.96729   3.29692   3.29693   3.64199
 Alpha virt. eigenvalues --    4.28317   4.32934   4.32934   4.47049   4.47049
 Alpha virt. eigenvalues --    4.70218   4.97509   5.09541   5.09542  15.89495
          Condensed to atoms (all electrons):
               1          2          3          4
     1  B    3.608078   0.427247   0.427246   0.427246
     2  H    0.427247   0.658745  -0.024632  -0.024632
     3  H    0.427246  -0.024632   0.658747  -0.024633
     4  H    0.427246  -0.024632  -0.024633   0.658747
 Mulliken charges:
               1
     1  B    0.110183
     2  H   -0.036727
     3  H   -0.036728
     4  H   -0.036728
 Sum of Mulliken charges =   0.00000
 Mulliken charges with hydrogens summed into heavy atoms:
               1
     1  B    0.000000
 Electronic spatial extent (au):  <R**2>=             34.5118
 Charge=              0.0000 electrons
 Dipole moment (field-independent basis, Debye):
    X=              0.0000    Y=              0.0000    Z=              0.0000  Tot=              0.0000
 Quadrupole moment (field-independent basis, Debye-Ang):
   XX=             -7.1131   YY=             -9.4578   ZZ=             -9.4578
   XY=              0.0000   XZ=              0.0000   YZ=              0.0000
 Traceless Quadrupole moment (field-independent basis, Debye-Ang):
   XX=              1.5631   YY=             -0.7816   ZZ=             -0.7816
   XY=              0.0000   XZ=              0.0000   YZ=              0.0000
 Octapole moment (field-independent basis, Debye-Ang**2):
  XXX=              0.0000  YYY=              0.0000  ZZZ=              0.0102  XYY=              0.0000
  XXY=              0.0000  XXZ=              0.0000  XZZ=              0.0000  YZZ=              0.0000
  YYZ=             -0.0102  XYZ=              0.0000
 Hexadecapole moment (field-independent basis, Debye-Ang**3):
 XXXX=             -7.2508 YYYY=            -24.5399 ZZZZ=            -24.5399 XXXY=              0.0000
 XXXZ=              0.0000 YYYX=              0.0000 YYYZ=              0.0000 ZZZX=              0.0000
 ZZZY=              0.0000 XXYY=             -5.5713 XXZZ=             -5.5713 YYZZ=             -8.1800
 XXYZ=              0.0000 YYXZ=              0.0000 ZZXY=              0.0000
 N-N= 7.443192288796D+00 E-N=-7.544839127655D+01  KE= 2.638821382505D+01
 Symmetry A1   KE= 2.495009034453D+01
 Symmetry A2   KE= 9.077726467410D-35
 Symmetry B1   KE= 3.939188603321D-33
 Symmetry B2   KE= 1.438123480518D+00
 1|1|UNPC-ALI-JAO|SP|RMP2-FC|CBSB3|B1H3|OEM|17-Sep-2024|0||#N Geom=AllC
 heck Guess=TCheck SCRF=Check MP2/CBSB3 CBSExtrap=(NMin=10,MinPop)||BH3
  CBS-QB3 calculation||0,1|B,0,0.,0.,0.|H,0,0.,1.18957,0.|H,0,1.0302,-0
 .59479,0.|H,0,-1.0302,-0.59479,0.||Version=IA32W-G09RevD.01|State=1-A1
 |HF=-26.3992524|MP2=-26.508274|E2(CBS)=-0.1207614|CBS-Int=-0.1155332|O
 Iii=1.4703324|RMSD=3.432e-010|PG=C02V [C2(B1H1),SGV(H2)]||@


 AND HERE I AM, FOR ALL MY LORE,
 THE WRETCHED FOOL I WAS BEFORE.
 CALLED MASTER OF ARTS, AND DOCTOR TO BOOT,
 FOR TEN YEARS ALMOST I CONFUTE
 AND UP AND DOWN, WHEREVER IT GOES
 I DRAG MY STUDENTS BY THE NOSE --
 AND SEE THAT FOR ALL OUR SCIENCE AND ART
 WE CAN KNOW NOTHING.  IT BURNS MY HEART.

                                       -- FAUST
 Diagonal vibrational polarizability:
        0.0000000       0.0000000       0.0000000

 Complete Basis Set (CBS) Extrapolation:
 M. R. Nyden and G. A. Petersson, JCP 75, 1843 (1981)
 G. A. Petersson and M. A. Al-Laham, JCP 94, 6081 (1991)
 G. A. Petersson, T. Tensfeldt, and J. A. Montgomery, JCP 94, 6091 (1991)
 J. A. Montgomery, J. W. Ochterski, and G. A. Petersson, JCP 101, 5900 (1994)

 Temperature=               298.150000 Pressure=                       1.000000
 E(ZPE)=                      0.025882 E(Thermal)=                     0.028771
 E(SCF)=                    -26.399252 DE(MP2)=                       -0.109022
 DE(CBS)=                    -0.011740 DE(MP34)=                      -0.022716
 DE(CCSD)=                   -0.002358 DE(Int)=                        0.005228
 DE(Empirical)=              -0.008513
 CBS-QB3 (0 K)=             -26.522491 CBS-QB3 Energy=               -26.519602
 CBS-QB3 Enthalpy=          -26.518658 CBS-QB3 Free Energy=          -26.541074
 1|1|UNPC-ALI-JAO|Mixed|CBS-QB3|CBS-QB3|B1H3|OEM|17-Sep-2024|0||#n CBS-
 QB3||BH3 CBS-QB3 calculation||0,1|B,0,0.,0.,0.|H,0,0.,1.18957,0.|H,0,1
 .0302,-0.59479,0.|H,0,-1.0302,-0.59479,0.||Version=IA32W-G09RevD.01|St
 ate=1-A1|HF/CbsB3=-26.3992524|E2(CBS)/CbsB3=-0.1207614|CBS-Int/CbsB3=0
 .0052282|OIii/CbsB3=1.4703324|MP2/CbsB4=-26.4889451|MP4(SDQ)/CbsB4=-26
 .511661|MP4(SDQ)/6-31+G(d')=-26.4847535|QCISD(T)/6-31+G(d')=-26.487111
 6|CBSQB3=-26.5224906|FreqCoord=0.,0.,0.,0.,2.2479615159,0.,1.946795862
 1,-1.1239902066,0.,-1.9467958621,-1.1239902066,0.|PG=C02V [C2(B1H1),SG
 V(H2)]|NImag=0||0.40833077,0.,0.40838912,0.,0.,0.12034732,-0.03900101,
 0.,0.,0.03260006,0.,-0.23324948,0.,0.,0.24507669,0.,0.,-0.04012067,0.,
 0.,0.01336533,-0.18466488,0.08411525,0.,0.00320048,-0.00119879,0.,0.19
 193544,0.08411193,-0.08756982,0.,0.01698224,-0.00591361,0.,-0.09200531
 ,0.08572771,0.,0.,-0.04011333,0.,0.,0.01337767,0.,0.,0.01335313,-0.184
 66488,-0.08411525,0.,0.00320048,0.00119879,0.,-0.01047104,-0.00908885,
 0.,0.19193544,-0.08411193,-0.08756982,0.,-0.01698224,-0.00591361,0.,0.
 00908885,0.00775572,0.,0.09200531,0.08572771,0.,0.,-0.04011333,0.,0.,0
 .01337767,0.,0.,0.01338253,0.,0.,0.01335313||0.,0.00000524,0.,0.,-0.00
 003907,0.,-0.00003305,0.00001691,0.,0.00003305,0.00001691,0.|||@
 Job cpu time:       0 days  0 hours  0 minutes  6.0 seconds.
 File lengths (MBytes):  RWF=     22 Int=      0 D2E=      0 Chk=      1 Scr=      1
 Normal termination of Gaussian 09 at Tue Sep 17 19:27:26 2024.
