 Entering Link 1 = C:\G09W\l1.exe PID=      6040.
  
 Copyright (c) 1988,1990,1992,1993,1995,1998,2003,2009,2010,
            Gaussian, Inc.  All Rights Reserved.
  
 This is part of the Gaussian(R) 09 program.  It is based on
 the Gaussian(R) 03 system (copyright 2003, Gaussian, Inc.),
 the Gaussian(R) 98 system (copyright 1998, Gaussian, Inc.),
 the Gaussian(R) 94 system (copyright 1995, Gaussian, Inc.),
 the Gaussian 92(TM) system (copyright 1992, Gaussian, Inc.),
 the Gaussian 90(TM) system (copyright 1990, Gaussian, Inc.),
 the Gaussian 88(TM) system (copyright 1988, Gaussian, Inc.),
 the Gaussian 86(TM) system (copyright 1986, Carnegie Mellon
 University), and the Gaussian 82(TM) system (copyright 1983,
 Carnegie Mellon University). Gaussian is a federally registered
 trademark of Gaussian, Inc.
  
 This software contains proprietary and confidential information,
 including trade secrets, belonging to Gaussian, Inc.
  
 This software is provided under written license and may be
 used, copied, transmitted, or stored only in accord with that
 written license.
  
 The following legend is applicable only to US Government
 contracts under FAR:
  
                    RESTRICTED RIGHTS LEGEND
  
 Use, reproduction and disclosure by the US Government is
 subject to restrictions as set forth in subparagraphs (a)
 and (c) of the Commercial Computer Software - Restricted
 Rights clause in FAR 52.227-19.
  
 Gaussian, Inc.
 340 Quinnipiac St., Bldg. 40, Wallingford CT 06492
  
  
 ---------------------------------------------------------------
 Warning -- This program may not be used in any manner that
 competes with the business of Gaussian, Inc. or will provide
 assistance to any competitor of Gaussian, Inc.  The licensee
 of this program is prohibited from giving any competitor of
 Gaussian, Inc. access to this program.  By using this program,
 the user acknowledges that Gaussian, Inc. is engaged in the
 business of creating and licensing software in the field of
 computational chemistry and represents and warrants to the
 licensee that it is not a competitor of Gaussian, Inc. and that
 it will not use this program in any manner prohibited above.
 ---------------------------------------------------------------
  

 Cite this work as:
 Gaussian 09, Revision B.01,
 M. J. Frisch, G. W. Trucks, H. B. Schlegel, G. E. Scuseria, 
 M. A. Robb, J. R. Cheeseman, G. Scalmani, V. Barone, B. Mennucci, 
 G. A. Petersson, H. Nakatsuji, M. Caricato, X. Li, H. P. Hratchian, 
 A. F. Izmaylov, J. Bloino, G. Zheng, J. L. Sonnenberg, M. Hada, 
 M. Ehara, K. Toyota, R. Fukuda, J. Hasegawa, M. Ishida, T. Nakajima, 
 Y. Honda, O. Kitao, H. Nakai, T. Vreven, J. A. Montgomery, Jr., 
 J. E. Peralta, F. Ogliaro, M. Bearpark, J. J. Heyd, E. Brothers, 
 K. N. Kudin, V. N. Staroverov, T. Keith, R. Kobayashi, J. Normand, 
 K. Raghavachari, A. Rendell, J. C. Burant, S. S. Iyengar, J. Tomasi, 
 M. Cossi, N. Rega, J. M. Millam, M. Klene, J. E. Knox, J. B. Cross, 
 V. Bakken, C. Adamo, J. Jaramillo, R. Gomperts, R. E. Stratmann, 
 O. Yazyev, A. J. Austin, R. Cammi, C. Pomelli, J. W. Ochterski, 
 R. L. Martin, K. Morokuma, V. G. Zakrzewski, G. A. Voth, 
 P. Salvador, J. J. Dannenberg, S. Dapprich, A. D. Daniels, 
 O. Farkas, J. B. Foresman, J. V. Ortiz, J. Cioslowski, 
 and D. J. Fox, Gaussian, Inc., Wallingford CT, 2010.
 
 ******************************************
 Gaussian 09:  IA32W-G09RevB.01 12-Aug-2010
                26-Jul-2019 
 ******************************************
 %mem=1500MB
 %chk=C:\GaussianCalcs\MP-BH3\Thermo\MP-HF-631Gd.chk
 -------------------------------------------------------------------
 #P CBS-QB3 Geom = Checkpoint Guess = Read Opt = Readfc Freq=noraman
 -------------------------------------------------------------------
 1/10=3,14=-1,18=20,19=15,26=3,29=2,38=1/1,3;
 2/9=110,12=2,40=1/2;
 3/5=4,6=6,7=700,11=2,14=-4,16=1,25=1,30=1,71=1,74=-5,116=-2/1,2,3;
 4/5=1/1;
 5/5=2,38=6/2;
 6/7=2,8=2,9=2,10=2,28=1/1;
 7//1,2,3,16;
 1/14=-1,18=20,19=15/3(2);
 2/9=110/2;
 99//99;
 2/9=110/2;
 3/5=4,6=6,7=700,11=2,14=-2,16=1,25=1,30=1,71=1,74=-5/1,2,3;
 4/5=5,16=3/1;
 5/5=2,38=5/2;
 7//1,2,3,16;
 1/14=-1,18=20,19=15/3(-5);
 2/9=110/2;
 6/7=2,8=2,9=2,10=2,19=2,28=1/1;
 99/9=1/99;
 Leave Link    1 at Fri Jul 26 10:29:06 2019, MaxMem=  196608000 cpu:       0.0
 (Enter C:\G09W\l101.exe)
 --
 MP
 --
 Redundant internal coordinates taken from checkpoint file:
 C:\GaussianCalcs\MP-BH3\Thermo\MP-HF-631Gd.chk
 Charge =  0 Multiplicity = 1
 N,0,0.5079529042,0.9023563565,-0.0000106859
 C,0,-0.0899050332,0.3168726795,1.2076098393
 C,0,-0.0899160494,0.3168568381,-1.2076180768
 C,0,-0.1106006255,-1.2145419165,-1.1775775784
 H,0,-1.121669719,0.6848072417,-1.2825577344
 H,0,0.4553906203,0.6785329573,-2.0879786704
 C,0,-0.1105898832,-1.214526469,1.1775896185
 H,0,-1.1216580192,0.6848240662,1.2825540821
 H,0,0.4554096674,0.6785603472,2.0879607139
 O,0,-0.7511481139,-1.6935276442,0.0000120834
 H,0,0.9232330282,-1.6038545924,-1.2278442667
 H,0,-0.6724897016,-1.6279548698,-2.0222479089
 H,0,0.923244229,-1.6038384856,1.2278519828
 H,0,-0.672471254,-1.6279283419,2.0222704977
 H,0,1.5090240201,0.7012391063,-0.0000139328
 Recover connectivity data from disk.
                    Isotopes and Nuclear Properties:
 (Nuclear quadrupole moments (NQMom) in fm**2, nuclear magnetic moments (NMagM)
  in nuclear magnetons)

  Atom         1           2           3           4           5           6           7           8           9          10
 IAtWgt=          14          12          12          12           1           1          12           1           1          16
 AtmWgt=  14.0030740  12.0000000  12.0000000  12.0000000   1.0078250   1.0078250  12.0000000   1.0078250   1.0078250  15.9949146
 NucSpn=           2           0           0           0           1           1           0           1           1           0
 AtZEff=  -4.5500000  -3.6000000  -3.6000000  -3.6000000  -1.0000000  -1.0000000  -3.6000000  -1.0000000  -1.0000000  -5.6000000
 NQMom=    2.0440000   0.0000000   0.0000000   0.0000000   0.0000000   0.0000000   0.0000000   0.0000000   0.0000000   0.0000000
 NMagM=    0.4037610   0.0000000   0.0000000   0.0000000   2.7928460   2.7928460   0.0000000   2.7928460   2.7928460   0.0000000

  Atom        11          12          13          14          15
 IAtWgt=           1           1           1           1           1
 AtmWgt=   1.0078250   1.0078250   1.0078250   1.0078250   1.0078250
 NucSpn=           1           1           1           1           1
 AtZEff=  -1.0000000  -1.0000000  -1.0000000  -1.0000000  -1.0000000
 NQMom=    0.0000000   0.0000000   0.0000000   0.0000000   0.0000000
 NMagM=    2.7928460   2.7928460   2.7928460   2.7928460   2.7928460
 Leave Link  101 at Fri Jul 26 10:29:06 2019, MaxMem=  196608000 cpu:       0.0
 (Enter C:\G09W\l103.exe)

 GradGradGradGradGradGradGradGradGradGradGradGradGradGradGradGradGradGrad
 Berny optimization.
 Initialization pass.
 Force constant matrix read from checkpoint file:
 C:\GaussianCalcs\MP-BH3\Thermo\MP-HF-631Gd.chk
 NVar current=  79 chk=  79 common=  79.
                           ----------------------------
                           !    Initial Parameters    !
                           ! (Angstroms and Degrees)  !
 --------------------------                            --------------------------
 ! Name  Definition              Value          Derivative Info.                !
 --------------------------------------------------------------------------------
 ! R1    R(1,2)                  1.4692         D2E/DX2 =    0.2836             !
 ! R2    R(1,3)                  1.4692         D2E/DX2 =    0.2836             !
 ! R3    R(1,15)                 1.0211         D2E/DX2 =    0.4254             !
 ! R4    R(2,7)                  1.5318         D2E/DX2 =    0.2339             !
 ! R5    R(2,8)                  1.098          D2E/DX2 =    0.3325             !
 ! R6    R(2,9)                  1.0969         D2E/DX2 =    0.3351             !
 ! R7    R(3,4)                  1.5318         D2E/DX2 =    0.2339             !
 ! R8    R(3,5)                  1.098          D2E/DX2 =    0.3325             !
 ! R9    R(3,6)                  1.0969         D2E/DX2 =    0.3351             !
 ! R10   R(4,10)                 1.4235         D2E/DX2 =    0.2937             !
 ! R11   R(4,11)                 1.1058         D2E/DX2 =    0.3118             !
 ! R12   R(4,12)                 1.0955         D2E/DX2 =    0.3382             !
 ! R13   R(7,10)                 1.4235         D2E/DX2 =    0.2937             !
 ! R14   R(7,13)                 1.1058         D2E/DX2 =    0.3118             !
 ! R15   R(7,14)                 1.0955         D2E/DX2 =    0.3382             !
 ! A1    A(2,1,3)              110.5607         D2E/DX2 =    0.0717             !
 ! A2    A(2,1,15)             108.691          D2E/DX2 =    0.0393             !
 ! A3    A(3,1,15)             108.691          D2E/DX2 =    0.0393             !
 ! A4    A(1,2,7)              112.8162         D2E/DX2 =    0.0733             !
 ! A5    A(1,2,8)              107.7548         D2E/DX2 =    0.0442             !
 ! A6    A(1,2,9)              109.0251         D2E/DX2 =    0.0477             !
 ! A7    A(7,2,8)              108.8854         D2E/DX2 =    0.0448             !
 ! A8    A(7,2,9)              110.6147         D2E/DX2 =    0.0501             !
 ! A9    A(8,2,9)              107.5704         D2E/DX2 =    0.0187             !
 ! A10   A(1,3,4)              112.8162         D2E/DX2 =    0.0733             !
 ! A11   A(1,3,5)              107.7548         D2E/DX2 =    0.0442             !
 ! A12   A(1,3,6)              109.0251         D2E/DX2 =    0.0477             !
 ! A13   A(4,3,5)              108.8854         D2E/DX2 =    0.0448             !
 ! A14   A(4,3,6)              110.6147         D2E/DX2 =    0.0501             !
 ! A15   A(5,3,6)              107.5704         D2E/DX2 =    0.0187             !
 ! A16   A(3,4,10)             111.0192         D2E/DX2 =    0.0688             !
 ! A17   A(3,4,11)             109.7815         D2E/DX2 =    0.0588             !
 ! A18   A(3,4,12)             111.6586         D2E/DX2 =    0.0626             !
 ! A19   A(10,4,11)            109.8655         D2E/DX2 =    0.0466             !
 ! A20   A(10,4,12)            106.2636         D2E/DX2 =    0.0513             !
 ! A21   A(11,4,12)            108.156          D2E/DX2 =    0.0278             !
 ! A22   A(2,7,10)             111.0192         D2E/DX2 =    0.0688             !
 ! A23   A(2,7,13)             109.7815         D2E/DX2 =    0.0588             !
 ! A24   A(2,7,14)             111.6586         D2E/DX2 =    0.0626             !
 ! A25   A(10,7,13)            109.8655         D2E/DX2 =    0.0466             !
 ! A26   A(10,7,14)            106.2636         D2E/DX2 =    0.0513             !
 ! A27   A(13,7,14)            108.156          D2E/DX2 =    0.0278             !
 ! A28   A(4,10,7)             111.6297         D2E/DX2 =    0.0695             !
 ! D1    D(3,1,2,7)             49.875          D2E/DX2 =    0.0188             !
 ! D2    D(3,1,2,8)            -70.3514         D2E/DX2 =    0.021              !
 ! D3    D(3,1,2,9)            173.1805         D2E/DX2 =    0.0198             !
 ! D4    D(15,1,2,7)           -69.3486         D2E/DX2 =    0.0194             !
 ! D5    D(15,1,2,8)           170.425          D2E/DX2 =    0.0201             !
 ! D6    D(15,1,2,9)            53.9569         D2E/DX2 =    0.0174             !
 ! D7    D(2,1,3,4)            -49.875          D2E/DX2 =    0.0188             !
 ! D8    D(2,1,3,5)             70.3514         D2E/DX2 =    0.021              !
 ! D9    D(2,1,3,6)           -173.1805         D2E/DX2 =    0.0198             !
 ! D10   D(15,1,3,4)            69.3486         D2E/DX2 =    0.0194             !
 ! D11   D(15,1,3,5)          -170.425          D2E/DX2 =    0.0201             !
 ! D12   D(15,1,3,6)           -53.9569         D2E/DX2 =    0.0174             !
 ! D13   D(1,2,7,10)           -54.3216         D2E/DX2 =    0.0222             !
 ! D14   D(1,2,7,13)            67.3508         D2E/DX2 =    0.0196             !
 ! D15   D(1,2,7,14)          -172.7071         D2E/DX2 =    0.0183             !
 ! D16   D(8,2,7,10)            65.2538         D2E/DX2 =    0.0217             !
 ! D17   D(8,2,7,13)          -173.0738         D2E/DX2 =    0.0187             !
 ! D18   D(8,2,7,14)           -53.1316         D2E/DX2 =    0.0173             !
 ! D19   D(9,2,7,10)          -176.7402         D2E/DX2 =    0.0195             !
 ! D20   D(9,2,7,13)           -55.0678         D2E/DX2 =    0.0175             !
 ! D21   D(9,2,7,14)            64.8744         D2E/DX2 =    0.0162             !
 ! D22   D(1,3,4,10)            54.3216         D2E/DX2 =    0.0222             !
 ! D23   D(1,3,4,11)           -67.3508         D2E/DX2 =    0.0196             !
 ! D24   D(1,3,4,12)           172.7071         D2E/DX2 =    0.0183             !
 ! D25   D(5,3,4,10)           -65.2538         D2E/DX2 =    0.0217             !
 ! D26   D(5,3,4,11)           173.0738         D2E/DX2 =    0.0187             !
 ! D27   D(5,3,4,12)            53.1316         D2E/DX2 =    0.0173             !
 ! D28   D(6,3,4,10)           176.7402         D2E/DX2 =    0.0195             !
 ! D29   D(6,3,4,11)            55.0678         D2E/DX2 =    0.0175             !
 ! D30   D(6,3,4,12)           -64.8744         D2E/DX2 =    0.0162             !
 ! D31   D(3,4,10,7)           -58.1066         D2E/DX2 =    0.0232             !
 ! D32   D(11,4,10,7)           63.5166         D2E/DX2 =    0.0309             !
 ! D33   D(12,4,10,7)         -179.7051         D2E/DX2 =    0.0284             !
 ! D34   D(2,7,10,4)            58.1066         D2E/DX2 =    0.0232             !
 ! D35   D(13,7,10,4)          -63.5166         D2E/DX2 =    0.0309             !
 ! D36   D(14,7,10,4)          179.7051         D2E/DX2 =    0.0284             !
 --------------------------------------------------------------------------------
 Trust Radius=3.00D-01 FncErr=1.00D-07 GrdErr=1.00D-06
 Number of steps in this run=     89 maximum allowed number of steps=    100.
 GradGradGradGradGradGradGradGradGradGradGradGradGradGradGradGradGradGrad

 Leave Link  103 at Fri Jul 26 10:29:06 2019, MaxMem=  196608000 cpu:       0.0
 (Enter C:\G09W\l202.exe)
                          Input orientation:                          
 ---------------------------------------------------------------------
 Center     Atomic      Atomic             Coordinates (Angstroms)
 Number     Number       Type             X           Y           Z
 ---------------------------------------------------------------------
      1          7           0        0.507953    0.902356   -0.000011
      2          6           0       -0.089905    0.316873    1.207610
      3          6           0       -0.089916    0.316857   -1.207618
      4          6           0       -0.110601   -1.214542   -1.177578
      5          1           0       -1.121670    0.684807   -1.282558
      6          1           0        0.455391    0.678533   -2.087979
      7          6           0       -0.110590   -1.214526    1.177590
      8          1           0       -1.121658    0.684824    1.282554
      9          1           0        0.455410    0.678560    2.087961
     10          8           0       -0.751148   -1.693528    0.000012
     11          1           0        0.923233   -1.603855   -1.227844
     12          1           0       -0.672490   -1.627955   -2.022248
     13          1           0        0.923244   -1.603838    1.227852
     14          1           0       -0.672471   -1.627928    2.022270
     15          1           0        1.509024    0.701239   -0.000014
 ---------------------------------------------------------------------
                    Distance matrix (angstroms):
                    1          2          3          4          5
     1  N    0.000000
     2  C    1.469208   0.000000
     3  C    1.469208   2.415228   0.000000
     4  C    2.500106   2.834568   1.531833   0.000000
     5  H    2.085168   2.720450   1.097961   2.154254   0.000000
     6  H    2.100588   3.359918   1.096906   2.175525   1.770836
     7  C    2.500106   1.531833   2.834568   2.355167   3.268345
     8  H    2.085168   1.097961   2.720450   3.268345   2.565112
     9  H    2.100588   1.096906   3.359918   3.816798   3.721238
    10  O    2.885125   2.436646   2.436646   1.423533   2.727407
    11  H    2.821547   3.262986   2.171638   1.105850   3.069624
    12  H    3.447515   3.814936   2.187534   1.095490   2.469367
    13  H    2.821547   2.171638   3.262986   2.646975   3.965064
    14  H    3.447515   2.187534   3.814936   3.274998   4.058622
    15  H    1.021074   2.040261   2.040261   2.771292   2.926728
                    6          7          8          9         10
     6  H    0.000000
     7  C    3.816798   0.000000
     8  H    3.721238   2.154254   0.000000
     9  H    4.175939   2.175525   1.770836   0.000000
    10  O    3.382619   1.423533   2.727407   3.382619   0.000000
    11  H    2.483546   2.646975   3.965064   4.052510   2.078274
    12  H    2.568330   3.274998   4.058622   4.846234   2.024851
    13  H    4.052510   1.105850   3.069624   2.483546   2.078274
    14  H    4.846234   1.095490   2.469367   2.568330   2.024851
    15  H    2.338858   2.771292   2.926728   2.338858   3.292914
                   11         12         13         14         15
    11  H    0.000000
    12  H    1.782692   0.000000
    13  H    2.455696   3.620787   0.000000
    14  H    3.620787   4.044518   1.782692   0.000000
    15  H    2.676598   3.778039   2.676598   3.778039   0.000000
 Stoichiometry    C4H9NO
 Framework group  CS[SG(HNO),X(C4H8)]
 Deg. of freedom    21
 Full point group                 CS      NOp   2
 Largest Abelian subgroup         CS      NOp   2
 Largest concise Abelian subgroup CS      NOp   2
                         Standard orientation:                         
 ---------------------------------------------------------------------
 Center     Atomic      Atomic             Coordinates (Angstroms)
 Number     Number       Type             X           Y           Z
 ---------------------------------------------------------------------
      1          7           0        0.576908    1.348591    0.000000
      2          6           0       -0.012994    0.755078    1.207614
      3          6           0       -0.012994    0.755078   -1.207614
      4          6           0       -0.012994   -0.776460   -1.177584
      5          1           0       -1.049622    1.109061   -1.282556
      6          1           0        0.527383    1.124092   -2.087970
      7          6           0       -0.012994   -0.776460    1.177584
      8          1           0       -1.049622    1.109061    1.282556
      9          1           0        0.527383    1.124092    2.087970
     10          8           0       -0.647019   -1.264061    0.000000
     11          1           0        1.026004   -1.151774   -1.227848
     12          1           0       -0.569244   -1.197419   -2.022259
     13          1           0        1.026004   -1.151774    1.227848
     14          1           0       -0.569244   -1.197419    2.022259
     15          1           0        1.580604    1.161013    0.000000
 ---------------------------------------------------------------------
 Rotational constants (GHZ):      4.8604148      4.5722405      2.6614992
 Leave Link  202 at Fri Jul 26 10:29:06 2019, MaxMem=  196608000 cpu:       0.0
 (Enter C:\G09W\l301.exe)
 Standard basis: 6-311G(2d,d,p) (5D, 7F)
 Ernie: Thresh=  0.10000D-02 Tol=  0.10000D-05 Strict=F.
 There are    91 symmetry adapted basis functions of A'  symmetry.
 There are    71 symmetry adapted basis functions of A"  symmetry.
 Integral buffers will be    262144 words long.
 Raffenetti 2 integral format.
 Two-electron integral symmetry is turned on.
   162 basis functions,   264 primitive gaussians,   168 cartesian basis functions
    24 alpha electrons       24 beta electrons
       nuclear repulsion energy       262.3067091591 Hartrees.
 IExCor=  402 DFT=T Ex+Corr=B3LYP ExCW=0 ScaHFX=  0.200000
 ScaDFX=  0.800000  0.720000  1.000000  0.810000 ScalE2=  1.000000  1.000000
 IRadAn=      0 IRanWt=     -1 IRanGd=            0 ICorTp=0
 NAtoms=   15 NActive=   15 NUniq=    9 SFac= 2.78D+00 NAtFMM=   50 NAOKFM=F Big=F
 Leave Link  301 at Fri Jul 26 10:29:06 2019, MaxMem=  196608000 cpu:       0.0
 (Enter C:\G09W\l302.exe)
 NPDir=0 NMtPBC=     1 NCelOv=     1 NCel=       1 NClECP=     1 NCelD=      1
         NCelK=      1 NCelE2=     1 NClLst=     1 CellRange=     0.0.
 One-electron integrals computed using PRISM.
 One-electron integral symmetry used in STVInt
 NBasis=   162 RedAO= T  NBF=    91    71
 NBsUse=   162 1.00D-06 NBFU=    91    71
 Precomputing XC quadrature grid using
 IXCGrd= 2 IRadAn=           0 IRanWt=          -1 IRanGd=           0 AccXCQ= 0.00D+00.
 NRdTot=     941 NPtTot=      119744 NUsed=      124142 NTot=      124158
 NSgBfM=   168   168   168   168   168 NAtAll=    15    15.
 Leave Link  302 at Fri Jul 26 10:29:07 2019, MaxMem=  196608000 cpu:       1.0
 (Enter C:\G09W\l303.exe)
 DipDrv:  MaxL=1.
 Leave Link  303 at Fri Jul 26 10:29:07 2019, MaxMem=  196608000 cpu:       0.0
 (Enter C:\G09W\l401.exe)
 Initial guess read from the checkpoint file:  C:\GaussianCalcs\MP-BH3\Thermo\MP-HF-631Gd.chk
 B after Tr=     0.000000    0.000000    0.000000
         Rot=    1.000000    0.000000    0.000000    0.000000 Ang=   0.00 deg.
 Guess basis will be translated and rotated to current coordinates.
 Initial guess orbital symmetries:
       Occupied  (A') (A') (A") (A') (A") (A') (A') (A') (A") (A')
                 (A") (A') (A') (A") (A') (A') (A") (A") (A') (A")
                 (A") (A') (A') (A')
       Virtual   (A') (A') (A') (A') (A') (A') (A') (A') (A') (A')
                 (A') (A') (A') (A') (A') (A') (A') (A') (A') (A')
                 (A') (A') (A') (A') (A') (A') (A') (A') (A') (A')
                 (A') (A') (A') (A') (A') (A') (A') (A') (A') (A')
                 (A') (A') (A') (A') (A') (A') (A') (A') (A') (A')
                 (A') (A') (A') (A') (A') (A') (A') (A') (A') (A')
                 (A') (A') (A') (A') (A') (A') (A') (A') (A') (A')
                 (A') (A') (A') (A') (A') (A') (A") (A") (A") (A")
                 (A") (A") (A") (A") (A") (A") (A") (A") (A") (A")
                 (A") (A") (A") (A") (A") (A") (A") (A") (A") (A")
                 (A") (A") (A") (A") (A") (A") (A") (A") (A") (A")
                 (A") (A") (A") (A") (A") (A") (A") (A") (A") (A")
                 (A") (A") (A") (A") (A") (A") (A") (A") (A") (A")
                 (A") (A") (A") (A") (A") (A") (A") (A")
 The electronic state of the initial guess is 1-A'.
 Leave Link  401 at Fri Jul 26 10:29:07 2019, MaxMem=  196608000 cpu:       0.0
 (Enter C:\G09W\l502.exe)
 Closed shell SCF:
 Requested convergence on RMS density matrix=1.00D-08 within 128 cycles.
 Requested convergence on MAX density matrix=1.00D-06.
 Requested convergence on             energy=1.00D-06.
 No special actions if energy rises.
 Using DIIS extrapolation, IDIIS=  1040.
 Integral symmetry usage will be decided dynamically.
       124009 words used for storage of precomputed grid.
 Keep R1 ints in memory in canonical form, NReq=103398436.
 IEnd=      228992 IEndB=      228992 NGot=   196608000 MDV=    95653707
 LenX=    95653707 LenY=    95625042
 Symmetry not used in FoFDir.
 MinBra= 0 MaxBra= 2 Meth= 1.
 IRaf=       0 NMat=   1 IRICut=       1 DoRegI=T DoRafI=F ISym2E= 0 JSym2E=0.

 Cycle   1  Pass 1  IDiag  1:
 E= -287.836529659219    
 DIIS: error= 2.28D-02 at cycle   1 NSaved=   1.
 NSaved= 1 IEnMin= 1 EnMin= -287.836529659219     IErMin= 1 ErrMin= 2.28D-02
 ErrMax= 2.28D-02 EMaxC= 1.00D-01 BMatC= 1.08D-01 BMatP= 1.08D-01
 IDIUse=3 WtCom= 7.72D-01 WtEn= 2.28D-01
 Coeff-Com:  0.100D+01
 Coeff-En:   0.100D+01
 Coeff:      0.100D+01
 Gap=     0.685 Goal=   None    Shift=    0.000
 GapD=    0.685 DampG=2.000 DampE=0.500 DampFc=1.0000 IDamp=-1.
 RMSDP=1.82D-03 MaxDP=5.99D-02              OVMax= 2.71D-02

 Cycle   2  Pass 1  IDiag  1:
 E= -287.872793308099     Delta-E=       -0.036263648879 Rises=F Damp=F
 DIIS: error= 1.62D-03 at cycle   2 NSaved=   2.
 NSaved= 2 IEnMin= 2 EnMin= -287.872793308099     IErMin= 2 ErrMin= 1.62D-03
 ErrMax= 1.62D-03 EMaxC= 1.00D-01 BMatC= 5.58D-04 BMatP= 1.08D-01
 IDIUse=3 WtCom= 9.84D-01 WtEn= 1.62D-02
 Coeff-Com:  0.146D-01 0.985D+00
 Coeff-En:   0.000D+00 0.100D+01
 Coeff:      0.144D-01 0.986D+00
 Gap=     0.254 Goal=   None    Shift=    0.000
 RMSDP=1.49D-04 MaxDP=4.27D-03 DE=-3.63D-02 OVMax= 4.82D-03

 Cycle   3  Pass 1  IDiag  1:
 E= -287.872835151475     Delta-E=       -0.000041843376 Rises=F Damp=F
 DIIS: error= 2.03D-03 at cycle   3 NSaved=   3.
 NSaved= 3 IEnMin= 3 EnMin= -287.872835151475     IErMin= 2 ErrMin= 1.62D-03
 ErrMax= 2.03D-03 EMaxC= 1.00D-01 BMatC= 3.17D-04 BMatP= 5.58D-04
 IDIUse=3 WtCom= 9.80D-01 WtEn= 2.03D-02
 Coeff-Com:  0.679D-04 0.416D+00 0.584D+00
 Coeff-En:   0.000D+00 0.443D+00 0.557D+00
 Coeff:      0.665D-04 0.417D+00 0.583D+00
 Gap=     0.256 Goal=   None    Shift=    0.000
 RMSDP=1.03D-04 MaxDP=3.32D-03 DE=-4.18D-05 OVMax= 4.21D-03

 Cycle   4  Pass 1  IDiag  1:
 E= -287.872982867174     Delta-E=       -0.000147715699 Rises=F Damp=F
 DIIS: error= 1.10D-03 at cycle   4 NSaved=   4.
 NSaved= 4 IEnMin= 4 EnMin= -287.872982867174     IErMin= 4 ErrMin= 1.10D-03
 ErrMax= 1.10D-03 EMaxC= 1.00D-01 BMatC= 8.69D-05 BMatP= 3.17D-04
 IDIUse=3 WtCom= 9.89D-01 WtEn= 1.10D-02
 Coeff-Com: -0.150D-02 0.846D-01 0.357D+00 0.560D+00
 Coeff-En:   0.000D+00 0.000D+00 0.248D+00 0.752D+00
 Coeff:     -0.148D-02 0.837D-01 0.356D+00 0.562D+00
 Gap=     0.255 Goal=   None    Shift=    0.000
 RMSDP=4.09D-05 MaxDP=1.13D-03 DE=-1.48D-04 OVMax= 1.68D-03

 Cycle   5  Pass 1  IDiag  1:
 E= -287.873042149397     Delta-E=       -0.000059282224 Rises=F Damp=F
 DIIS: error= 8.42D-05 at cycle   5 NSaved=   5.
 NSaved= 5 IEnMin= 5 EnMin= -287.873042149397     IErMin= 5 ErrMin= 8.42D-05
 ErrMax= 8.42D-05 EMaxC= 1.00D-01 BMatC= 1.34D-06 BMatP= 8.69D-05
 IDIUse=1 WtCom= 1.00D+00 WtEn= 0.00D+00
 Coeff-Com: -0.642D-03 0.184D-01 0.122D+00 0.233D+00 0.627D+00
 Coeff:     -0.642D-03 0.184D-01 0.122D+00 0.233D+00 0.627D+00
 Gap=     0.255 Goal=   None    Shift=    0.000
 RMSDP=7.95D-06 MaxDP=1.28D-04 DE=-5.93D-05 OVMax= 2.41D-04

 Cycle   6  Pass 1  IDiag  1:
 E= -287.873043221485     Delta-E=       -0.000001072087 Rises=F Damp=F
 DIIS: error= 2.45D-05 at cycle   6 NSaved=   6.
 NSaved= 6 IEnMin= 6 EnMin= -287.873043221485     IErMin= 6 ErrMin= 2.45D-05
 ErrMax= 2.45D-05 EMaxC= 1.00D-01 BMatC= 1.05D-07 BMatP= 1.34D-06
 IDIUse=1 WtCom= 1.00D+00 WtEn= 0.00D+00
 Coeff-Com: -0.250D-03 0.548D-02 0.476D-01 0.961D-01 0.320D+00 0.531D+00
 Coeff:     -0.250D-03 0.548D-02 0.476D-01 0.961D-01 0.320D+00 0.531D+00
 Gap=     0.255 Goal=   None    Shift=    0.000
 RMSDP=1.85D-06 MaxDP=3.95D-05 DE=-1.07D-06 OVMax= 7.04D-05

 Cycle   7  Pass 1  IDiag  1:
 E= -287.873043307475     Delta-E=       -0.000000085990 Rises=F Damp=F
 DIIS: error= 6.25D-06 at cycle   7 NSaved=   7.
 NSaved= 7 IEnMin= 7 EnMin= -287.873043307475     IErMin= 7 ErrMin= 6.25D-06
 ErrMax= 6.25D-06 EMaxC= 1.00D-01 BMatC= 6.43D-09 BMatP= 1.05D-07
 IDIUse=1 WtCom= 1.00D+00 WtEn= 0.00D+00
 Coeff-Com: -0.292D-04 0.141D-03 0.465D-02 0.108D-01 0.557D-01 0.227D+00
 Coeff-Com:  0.701D+00
 Coeff:     -0.292D-04 0.141D-03 0.465D-02 0.108D-01 0.557D-01 0.227D+00
 Coeff:      0.701D+00
 Gap=     0.255 Goal=   None    Shift=    0.000
 RMSDP=4.55D-07 MaxDP=1.51D-05 DE=-8.60D-08 OVMax= 1.86D-05

 Cycle   8  Pass 1  IDiag  1:
 E= -287.873043312098     Delta-E=       -0.000000004624 Rises=F Damp=F
 DIIS: error= 1.66D-06 at cycle   8 NSaved=   8.
 NSaved= 8 IEnMin= 8 EnMin= -287.873043312098     IErMin= 8 ErrMin= 1.66D-06
 ErrMax= 1.66D-06 EMaxC= 1.00D-01 BMatC= 6.61D-10 BMatP= 6.43D-09
 IDIUse=1 WtCom= 1.00D+00 WtEn= 0.00D+00
 Coeff-Com: -0.312D-05-0.102D-03-0.444D-03-0.586D-03 0.640D-02 0.766D-01
 Coeff-Com:  0.337D+00 0.581D+00
 Coeff:     -0.312D-05-0.102D-03-0.444D-03-0.586D-03 0.640D-02 0.766D-01
 Coeff:      0.337D+00 0.581D+00
 Gap=     0.255 Goal=   None    Shift=    0.000
 RMSDP=1.75D-07 MaxDP=3.99D-06 DE=-4.62D-09 OVMax= 7.75D-06

 Cycle   9  Pass 1  IDiag  1:
 E= -287.873043312683     Delta-E=       -0.000000000585 Rises=F Damp=F
 DIIS: error= 5.55D-07 at cycle   9 NSaved=   9.
 NSaved= 9 IEnMin= 9 EnMin= -287.873043312683     IErMin= 9 ErrMin= 5.55D-07
 ErrMax= 5.55D-07 EMaxC= 1.00D-01 BMatC= 4.48D-11 BMatP= 6.61D-10
 IDIUse=1 WtCom= 1.00D+00 WtEn= 0.00D+00
 Coeff-Com:  0.200D-05-0.996D-04-0.674D-03-0.128D-02-0.102D-02 0.199D-01
 Coeff-Com:  0.106D+00 0.273D+00 0.604D+00
 Coeff:      0.200D-05-0.996D-04-0.674D-03-0.128D-02-0.102D-02 0.199D-01
 Coeff:      0.106D+00 0.273D+00 0.604D+00
 Gap=     0.255 Goal=   None    Shift=    0.000
 RMSDP=4.06D-08 MaxDP=9.30D-07 DE=-5.85D-10 OVMax= 1.30D-06

 Cycle  10  Pass 1  IDiag  1:
 E= -287.873043312726     Delta-E=       -0.000000000043 Rises=F Damp=F
 DIIS: error= 6.59D-08 at cycle  10 NSaved=  10.
 NSaved=10 IEnMin=10 EnMin= -287.873043312726     IErMin=10 ErrMin= 6.59D-08
 ErrMax= 6.59D-08 EMaxC= 1.00D-01 BMatC= 1.11D-12 BMatP= 4.48D-11
 IDIUse=1 WtCom= 1.00D+00 WtEn= 0.00D+00
 Coeff-Com:  0.562D-06-0.187D-04-0.150D-03-0.324D-03-0.450D-03 0.144D-02
 Coeff-Com:  0.118D-01 0.519D-01 0.182D+00 0.754D+00
 Coeff:      0.562D-06-0.187D-04-0.150D-03-0.324D-03-0.450D-03 0.144D-02
 Coeff:      0.118D-01 0.519D-01 0.182D+00 0.754D+00
 Gap=     0.255 Goal=   None    Shift=    0.000
 RMSDP=1.06D-08 MaxDP=2.99D-07 DE=-4.32D-11 OVMax= 4.61D-07

 Cycle  11  Pass 1  IDiag  1:
 E= -287.873043312728     Delta-E=       -0.000000000002 Rises=F Damp=F
 DIIS: error= 1.55D-08 at cycle  11 NSaved=  11.
 NSaved=11 IEnMin=11 EnMin= -287.873043312728     IErMin=11 ErrMin= 1.55D-08
 ErrMax= 1.55D-08 EMaxC= 1.00D-01 BMatC= 3.55D-14 BMatP= 1.11D-12
 IDIUse=1 WtCom= 1.00D+00 WtEn= 0.00D+00
 Coeff-Com: -0.366D-07 0.326D-05 0.180D-04 0.271D-04 0.210D-04-0.106D-02
 Coeff-Com: -0.534D-02-0.923D-02-0.203D-01 0.100D+00 0.935D+00
 Coeff:     -0.366D-07 0.326D-05 0.180D-04 0.271D-04 0.210D-04-0.106D-02
 Coeff:     -0.534D-02-0.923D-02-0.203D-01 0.100D+00 0.935D+00
 Gap=     0.255 Goal=   None    Shift=    0.000
 RMSDP=1.99D-09 MaxDP=7.08D-08 DE=-2.16D-12 OVMax= 1.29D-07

 SCF Done:  E(RB3LYP) =  -287.873043313     A.U. after   11 cycles
             Convg  =    0.1994D-08             -V/T =  2.0040
 KE= 2.867205260490D+02 PE=-1.196394601353D+03 EE= 3.594943228321D+02
 Leave Link  502 at Fri Jul 26 10:29:37 2019, MaxMem=  196608000 cpu:      30.0
 (Enter C:\G09W\l601.exe)
 Copying SCF densities to generalized density rwf, IOpCl= 0 IROHF=0.

 **********************************************************************

            Population analysis using the SCF density.

 **********************************************************************

 Orbital symmetries:
       Occupied  (A') (A') (A") (A') (A") (A') (A') (A') (A") (A')
                 (A") (A') (A') (A") (A') (A') (A") (A") (A') (A")
                 (A") (A') (A') (A')
       Virtual   (A') (A') (A") (A') (A') (A") (A') (A") (A') (A")
                 (A') (A") (A") (A') (A") (A") (A') (A') (A") (A')
                 (A") (A') (A") (A') (A') (A') (A") (A') (A") (A")
                 (A") (A') (A') (A') (A") (A") (A') (A') (A') (A")
                 (A') (A') (A") (A') (A") (A") (A') (A') (A") (A')
                 (A") (A') (A") (A") (A') (A') (A") (A') (A') (A")
                 (A") (A") (A') (A") (A') (A') (A") (A') (A') (A")
                 (A') (A") (A') (A") (A') (A") (A') (A") (A') (A')
                 (A") (A") (A') (A') (A") (A') (A") (A') (A') (A')
                 (A") (A") (A') (A") (A") (A') (A") (A') (A") (A')
                 (A') (A") (A') (A") (A') (A') (A") (A") (A') (A")
                 (A') (A") (A') (A') (A") (A') (A") (A') (A") (A')
                 (A') (A") (A') (A") (A') (A") (A') (A') (A") (A')
                 (A') (A") (A') (A') (A") (A") (A') (A')
 The electronic state is 1-A'.
 Alpha  occ. eigenvalues --  -19.11715 -14.29765 -10.21431 -10.21429 -10.19368
 Alpha  occ. eigenvalues --  -10.19366  -1.03644  -0.90471  -0.77051  -0.67871
 Alpha  occ. eigenvalues --   -0.65110  -0.58623  -0.50185  -0.47738  -0.46955
 Alpha  occ. eigenvalues --   -0.45787  -0.44799  -0.39561  -0.37491  -0.36256
 Alpha  occ. eigenvalues --   -0.35361  -0.32241  -0.27682  -0.21710
 Alpha virt. eigenvalues --    0.03792   0.06331   0.06689   0.08161   0.10180
 Alpha virt. eigenvalues --    0.10712   0.11432   0.11831   0.12407   0.14270
 Alpha virt. eigenvalues --    0.20167   0.21269   0.22336   0.23084   0.26058
 Alpha virt. eigenvalues --    0.33138   0.35541   0.37078   0.37503   0.37941
 Alpha virt. eigenvalues --    0.39960   0.41654   0.46683   0.48813   0.49747
 Alpha virt. eigenvalues --    0.50594   0.52630   0.54889   0.55654   0.56958
 Alpha virt. eigenvalues --    0.58508   0.58781   0.59479   0.61210   0.61541
 Alpha virt. eigenvalues --    0.67485   0.68237   0.73161   0.75193   0.78610
 Alpha virt. eigenvalues --    0.82408   0.90525   1.00982   1.01234   1.02902
 Alpha virt. eigenvalues --    1.03724   1.08733   1.11610   1.20281   1.22414
 Alpha virt. eigenvalues --    1.26571   1.26910   1.28218   1.42818   1.44964
 Alpha virt. eigenvalues --    1.47912   1.48430   1.50534   1.51599   1.51677
 Alpha virt. eigenvalues --    1.53644   1.53883   1.54050   1.59673   1.60081
 Alpha virt. eigenvalues --    1.61686   1.66546   1.67665   1.68639   1.69181
 Alpha virt. eigenvalues --    1.73582   1.74989   1.77158   1.81131   1.82119
 Alpha virt. eigenvalues --    1.89320   1.90591   1.91529   1.94724   2.01911
 Alpha virt. eigenvalues --    2.03060   2.08536   2.13648   2.14167   2.20270
 Alpha virt. eigenvalues --    2.21014   2.21902   2.29379   2.35828   2.37915
 Alpha virt. eigenvalues --    2.39990   2.41695   2.43758   2.49404   2.51891
 Alpha virt. eigenvalues --    2.53314   2.57268   2.59712   2.62831   2.65798
 Alpha virt. eigenvalues --    2.67399   2.68983   2.70612   2.73218   2.73325
 Alpha virt. eigenvalues --    2.82248   2.84297   2.87413   2.88919   2.95624
 Alpha virt. eigenvalues --    3.09185   3.13135   3.13439   3.15220   3.25230
 Alpha virt. eigenvalues --    3.32988   3.45241   3.55823   3.73213   3.76256
 Alpha virt. eigenvalues --    3.81092   3.82179   3.95912   4.02729   4.08973
 Alpha virt. eigenvalues --    4.12832   4.24761   4.76723   4.87359   4.98370
 Alpha virt. eigenvalues --    5.25094   5.66114  23.77834  23.80148  23.86087
 Alpha virt. eigenvalues --   23.89331  35.54344  49.90414
          Condensed to atoms (all electrons):
              1          2          3          4          5          6
     1  N    6.590444   0.341660   0.341660  -0.065763  -0.041957  -0.025886
     2  C    0.341660   4.929589  -0.068932  -0.017592  -0.006631   0.008058
     3  C    0.341660  -0.068932   4.929589   0.365207   0.388584   0.382723
     4  C   -0.065763  -0.017592   0.365207   4.843312  -0.054631  -0.034441
     5  H   -0.041957  -0.006631   0.388584  -0.054631   0.593292  -0.025413
     6  H   -0.025886   0.008058   0.382723  -0.034441  -0.025413   0.590442
     7  C   -0.065763   0.365207  -0.017592  -0.062365  -0.003209  -0.000273
     8  H   -0.041957   0.388584  -0.006631  -0.003209   0.008855   0.000043
     9  H   -0.025886   0.382723   0.008058  -0.000273   0.000043  -0.000207
    10  O   -0.001331  -0.052521  -0.052521   0.293045   0.003962   0.004504
    11  H   -0.001719  -0.001857  -0.062716   0.375431   0.011956  -0.001187
    12  H    0.006500  -0.000809  -0.027780   0.381011  -0.004747   0.000993
    13  H   -0.001719  -0.062716  -0.001857  -0.014317   0.001229   0.000250
    14  H    0.006500  -0.027780  -0.000809   0.007789   0.000082   0.000093
    15  H    0.357247  -0.052401  -0.052401  -0.003650   0.010811  -0.010079
              7          8          9         10         11         12
     1  N   -0.065763  -0.041957  -0.025886  -0.001331  -0.001719   0.006500
     2  C    0.365207   0.388584   0.382723  -0.052521  -0.001857  -0.000809
     3  C   -0.017592  -0.006631   0.008058  -0.052521  -0.062716  -0.027780
     4  C   -0.062365  -0.003209  -0.000273   0.293045   0.375431   0.381011
     5  H   -0.003209   0.008855   0.000043   0.003962   0.011956  -0.004747
     6  H   -0.000273   0.000043  -0.000207   0.004504  -0.001187   0.000993
     7  C    4.843312  -0.054631  -0.034441   0.293045  -0.014317   0.007789
     8  H   -0.054631   0.593292  -0.025413   0.003962   0.001229   0.000082
     9  H   -0.034441  -0.025413   0.590442   0.004504   0.000250   0.000093
    10  O    0.293045   0.003962   0.004504   8.001870  -0.041183  -0.025533
    11  H   -0.014317   0.001229   0.000250  -0.041183   0.664057  -0.033427
    12  H    0.007789   0.000082   0.000093  -0.025533  -0.033427   0.587853
    13  H    0.375431   0.011956  -0.001187  -0.041183   0.018536   0.000174
    14  H    0.381011  -0.004747   0.000993  -0.025533   0.000174  -0.000195
    15  H   -0.003650   0.010811  -0.010079  -0.000329   0.006314  -0.000071
             13         14         15
     1  N   -0.001719   0.006500   0.357247
     2  C   -0.062716  -0.027780  -0.052401
     3  C   -0.001857  -0.000809  -0.052401
     4  C   -0.014317   0.007789  -0.003650
     5  H    0.001229   0.000082   0.010811
     6  H    0.000250   0.000093  -0.010079
     7  C    0.375431   0.381011  -0.003650
     8  H    0.011956  -0.004747   0.010811
     9  H   -0.001187   0.000993  -0.010079
    10  O   -0.041183  -0.025533  -0.000329
    11  H    0.018536   0.000174   0.006314
    12  H    0.000174  -0.000195  -0.000071
    13  H    0.664057  -0.033427   0.006314
    14  H   -0.033427   0.587853  -0.000071
    15  H    0.006314  -0.000071   0.565541
 Mulliken atomic charges:
              1
     1  N   -0.372029
     2  C   -0.124581
     3  C   -0.124581
     4  C   -0.009553
     5  H    0.117776
     6  H    0.110379
     7  C   -0.009553
     8  H    0.117776
     9  H    0.110379
    10  O   -0.364760
    11  H    0.078460
    12  H    0.108068
    13  H    0.078460
    14  H    0.108068
    15  H    0.175691
 Sum of Mulliken atomic charges =   0.00000
 Mulliken charges with hydrogens summed into heavy atoms:
              1
     1  N   -0.196338
     2  C    0.103574
     3  C    0.103574
     4  C    0.176975
     7  C    0.176975
    10  O   -0.364760
 Sum of Mulliken charges with hydrogens summed into heavy atoms =   0.00000
 Electronic spatial extent (au):  <R**2>=            522.4414
 Charge=              0.0000 electrons
 Dipole moment (field-independent basis, Debye):
    X=              1.2351    Y=             -0.0490    Z=              0.0000  Tot=              1.2361
 Quadrupole moment (field-independent basis, Debye-Ang):
   XX=            -36.6768   YY=            -44.2138   ZZ=            -33.4944
   XY=             -1.6078   XZ=              0.0000   YZ=              0.0000
 Traceless Quadrupole moment (field-independent basis, Debye-Ang):
   XX=              1.4515   YY=             -6.0855   ZZ=              4.6339
   XY=             -1.6078   XZ=              0.0000   YZ=              0.0000
 Octapole moment (field-independent basis, Debye-Ang**2):
  XXX=              2.7851  YYY=             -8.8598  ZZZ=              0.0000  XYY=             -0.0569
  XXY=              2.7427  XXZ=              0.0000  XZZ=             -1.4464  YZZ=             -1.9789
  YYZ=              0.0000  XYZ=              0.0000
 Hexadecapole moment (field-independent basis, Debye-Ang**3):
 XXXX=            -91.7710 YYYY=           -311.0685 ZZZZ=           -305.6374 XXXY=            -22.2520
 XXXZ=              0.0000 YYYX=            -31.3130 YYYZ=              0.0000 ZZZX=              0.0000
 ZZZY=              0.0000 XXYY=            -62.0929 XXZZ=            -66.5397 YYZZ=            -93.5613
 XXYZ=              0.0000 YYXZ=              0.0000 ZZXY=             -2.8546
 N-N= 2.623067091591D+02 E-N=-1.196394599909D+03  KE= 2.867205260490D+02
 Symmetry A'   KE= 2.031515866369D+02
 Symmetry A"   KE= 8.356893941208D+01
 No NMR shielding tensors so no spin-rotation constants.
 Leave Link  601 at Fri Jul 26 10:29:37 2019, MaxMem=  196608000 cpu:       0.0
 (Enter C:\G09W\l701.exe)
 Compute integral first derivatives.
 ... and contract with generalized density number  0.
 Leave Link  701 at Fri Jul 26 10:29:37 2019, MaxMem=  196608000 cpu:       0.0
 (Enter C:\G09W\l702.exe)
 L702 exits ... SP integral derivatives will be done elsewhere.
 Leave Link  702 at Fri Jul 26 10:29:37 2019, MaxMem=  196608000 cpu:       0.0
 (Enter C:\G09W\l703.exe)
 Compute integral first derivatives, UseDBF=F ICtDFT=           0.
 Integral derivatives from FoFDir, PRISM(SPDF).
 Calling FoFJK, ICntrl=      2127 FMM=F ISym2X=1 I1Cent= 0 IOpClX= 0 NMat=1 NMatS=1 NMatT=0.
 FoFCou: FMM=F IPFlag=           0 FMFlag=      100000 FMFlg1=         800
         NFxFlg=           0 DoJE=F BraDBF=F KetDBF=F FulRan=T
         Omega=  0.000000  0.000000  1.000000  0.000000  0.000000 ICntrl=    2127 IOpCl=  0
         NMat0=    1 NMatS0=    1 NMatT0=    0 NMatD0=    1 NMtDS0=    0 NMtDT0=    0
         I1Cent=           0 NGrid=           0.
 Petite list used in FoFCou.
 Leave Link  703 at Fri Jul 26 10:29:51 2019, MaxMem=  196608000 cpu:      14.0
 (Enter C:\G09W\l716.exe)
 Dipole        = 4.85937072D-01-1.92656541D-02 1.61163265D-15
 ***** Axes restored to original set *****
 -------------------------------------------------------------------
 Center     Atomic                   Forces (Hartrees/Bohr)
 Number     Number              X              Y              Z
 -------------------------------------------------------------------
      1        7           0.003001886   -0.002009342   -0.000000001
      2        6          -0.000470631    0.000660989    0.001431893
      3        6          -0.000470644    0.000660970   -0.001431898
      4        6           0.000278077   -0.000313546   -0.002121537
      5        1           0.001205261   -0.000539523   -0.000202381
      6        1          -0.000950476   -0.000609747    0.001131349
      7        6           0.000278096   -0.000313518    0.002121539
      8        1           0.001205263   -0.000539521    0.000202377
      9        1          -0.000950486   -0.000609762   -0.001131332
     10        8           0.000270471   -0.000026115   -0.000000001
     11        1          -0.001248772    0.000470284    0.000302881
     12        1           0.000856389    0.000794559    0.001292916
     13        1          -0.001248775    0.000470281   -0.000302876
     14        1           0.000856377    0.000794542   -0.001292934
     15        1          -0.002612034    0.001109450    0.000000005
 -------------------------------------------------------------------
 Cartesian Forces:  Max     0.003001886 RMS     0.001099938
 Leave Link  716 at Fri Jul 26 10:29:51 2019, MaxMem=  196608000 cpu:       0.0
 (Enter C:\G09W\l103.exe)

 GradGradGradGradGradGradGradGradGradGradGradGradGradGradGradGradGradGrad
 Berny optimization.
 Internal  Forces:  Max     0.002776565 RMS     0.000613329
 Search for a local minimum.
 Step number   1 out of a maximum of   89
 All quantities printed in internal units (Hartrees-Bohrs-Radians)
 RMS Force = .61333D-03 SwitMx=.10000D-02 MixMth= 2
 Mixed Optimization -- En-DIIS/RFO-DIIS
 Second derivative matrix not updated -- first step.
 ITU=  0
     Eigenvalues ---    0.00510   0.00530   0.00982   0.02477   0.02557
     Eigenvalues ---    0.04034   0.04465   0.04555   0.04849   0.05149
     Eigenvalues ---    0.06135   0.06891   0.07917   0.07941   0.09045
     Eigenvalues ---    0.09098   0.09831   0.10489   0.10552   0.10911
     Eigenvalues ---    0.12471   0.19553   0.20644   0.23822   0.25056
     Eigenvalues ---    0.26969   0.28483   0.28510   0.30934   0.31070
     Eigenvalues ---    0.33070   0.33193   0.33361   0.33459   0.34207
     Eigenvalues ---    0.34422   0.35526   0.36829   0.42651
 RFO step:  Lambda=-1.14528218D-04 EMin= 5.10420809D-03
 Linear search not attempted -- first point.
 Iteration  1 RMS(Cart)=  0.00463597 RMS(Int)=  0.00004390
 Iteration  2 RMS(Cart)=  0.00003905 RMS(Int)=  0.00001571
 Iteration  3 RMS(Cart)=  0.00000000 RMS(Int)=  0.00001571
 ClnCor:  largest displacement from symmetrization is 1.10D-09 for atom     9.
 Variable       Old X    -DE/DX   Delta X   Delta X   Delta X     New X
                                 (Linear)    (Quad)   (Total)
    R1        2.77640   0.00031   0.00000  -0.00103  -0.00102   2.77538
    R2        2.77640   0.00031   0.00000  -0.00103  -0.00102   2.77538
    R3        1.92955  -0.00278   0.00000  -0.00764  -0.00764   1.92191
    R4        2.89474  -0.00094   0.00000  -0.00283  -0.00283   2.89191
    R5        2.07485  -0.00130   0.00000  -0.00371  -0.00371   2.07114
    R6        2.07285  -0.00158   0.00000  -0.00463  -0.00463   2.06823
    R7        2.89474  -0.00094   0.00000  -0.00283  -0.00283   2.89191
    R8        2.07485  -0.00130   0.00000  -0.00371  -0.00371   2.07114
    R9        2.07285  -0.00158   0.00000  -0.00463  -0.00463   2.06823
   R10        2.69009   0.00038   0.00000   0.00194   0.00193   2.69202
   R11        2.08975  -0.00135   0.00000  -0.00440  -0.00440   2.08535
   R12        2.07018  -0.00174   0.00000  -0.00513  -0.00513   2.06505
   R13        2.69009   0.00038   0.00000   0.00194   0.00193   2.69202
   R14        2.08975  -0.00135   0.00000  -0.00440  -0.00440   2.08535
   R15        2.07018  -0.00174   0.00000  -0.00513  -0.00513   2.06505
    A1        1.92965   0.00046   0.00000   0.00576   0.00574   1.93539
    A2        1.89702   0.00006   0.00000   0.00709   0.00700   1.90402
    A3        1.89702   0.00006   0.00000   0.00709   0.00700   1.90402
    A4        1.96901  -0.00031   0.00000  -0.00134  -0.00133   1.96768
    A5        1.88068   0.00022   0.00000   0.00251   0.00251   1.88319
    A6        1.90285   0.00026   0.00000   0.00132   0.00132   1.90416
    A7        1.90041  -0.00003   0.00000  -0.00084  -0.00084   1.89957
    A8        1.93059  -0.00001   0.00000  -0.00001  -0.00001   1.93058
    A9        1.87746  -0.00012   0.00000  -0.00162  -0.00162   1.87584
   A10        1.96901  -0.00031   0.00000  -0.00134  -0.00133   1.96768
   A11        1.88068   0.00022   0.00000   0.00251   0.00251   1.88319
   A12        1.90285   0.00026   0.00000   0.00132   0.00132   1.90416
   A13        1.90041  -0.00003   0.00000  -0.00084  -0.00084   1.89957
   A14        1.93059  -0.00001   0.00000  -0.00001  -0.00001   1.93058
   A15        1.87746  -0.00012   0.00000  -0.00162  -0.00162   1.87584
   A16        1.93765  -0.00004   0.00000  -0.00109  -0.00110   1.93655
   A17        1.91605   0.00007   0.00000   0.00077   0.00077   1.91682
   A18        1.94881  -0.00013   0.00000   0.00005   0.00005   1.94886
   A19        1.91751  -0.00019   0.00000  -0.00219  -0.00218   1.91533
   A20        1.85465   0.00020   0.00000   0.00011   0.00011   1.85476
   A21        1.88768   0.00010   0.00000   0.00236   0.00235   1.89003
   A22        1.93765  -0.00004   0.00000  -0.00109  -0.00110   1.93655
   A23        1.91605   0.00007   0.00000   0.00077   0.00077   1.91682
   A24        1.94881  -0.00013   0.00000   0.00005   0.00005   1.94886
   A25        1.91751  -0.00019   0.00000  -0.00219  -0.00218   1.91533
   A26        1.85465   0.00020   0.00000   0.00011   0.00011   1.85476
   A27        1.88768   0.00010   0.00000   0.00236   0.00235   1.89003
   A28        1.94831   0.00025   0.00000   0.00159   0.00160   1.94991
    D1        0.87048   0.00017   0.00000  -0.00292  -0.00291   0.86757
    D2       -1.22786   0.00025   0.00000  -0.00274  -0.00273  -1.23059
    D3        3.02257   0.00013   0.00000  -0.00290  -0.00288   3.01969
    D4       -1.21036  -0.00021   0.00000  -0.01943  -0.01945  -1.22981
    D5        2.97448  -0.00012   0.00000  -0.01925  -0.01927   2.95521
    D6        0.94173  -0.00024   0.00000  -0.01941  -0.01942   0.92230
    D7       -0.87048  -0.00017   0.00000   0.00292   0.00291  -0.86757
    D8        1.22786  -0.00025   0.00000   0.00274   0.00273   1.23059
    D9       -3.02257  -0.00013   0.00000   0.00290   0.00288  -3.01969
   D10        1.21036   0.00021   0.00000   0.01943   0.01945   1.22981
   D11       -2.97448   0.00012   0.00000   0.01925   0.01927  -2.95521
   D12       -0.94173   0.00024   0.00000   0.01941   0.01942  -0.92230
   D13       -0.94809   0.00018   0.00000   0.00322   0.00321  -0.94488
   D14        1.17549  -0.00005   0.00000   0.00027   0.00026   1.17575
   D15       -3.01431   0.00004   0.00000   0.00377   0.00376  -3.01054
   D16        1.13889   0.00024   0.00000   0.00496   0.00495   1.14385
   D17       -3.02071   0.00002   0.00000   0.00200   0.00200  -3.01871
   D18       -0.92732   0.00011   0.00000   0.00550   0.00550  -0.92182
   D19       -3.08470   0.00007   0.00000   0.00247   0.00246  -3.08223
   D20       -0.96111  -0.00016   0.00000  -0.00048  -0.00049  -0.96160
   D21        1.13227  -0.00007   0.00000   0.00301   0.00301   1.13529
   D22        0.94809  -0.00018   0.00000  -0.00322  -0.00321   0.94488
   D23       -1.17549   0.00005   0.00000  -0.00027  -0.00026  -1.17575
   D24        3.01431  -0.00004   0.00000  -0.00377  -0.00376   3.01054
   D25       -1.13889  -0.00024   0.00000  -0.00496  -0.00495  -1.14385
   D26        3.02071  -0.00002   0.00000  -0.00200  -0.00200   3.01871
   D27        0.92732  -0.00011   0.00000  -0.00550  -0.00550   0.92182
   D28        3.08470  -0.00007   0.00000  -0.00247  -0.00246   3.08223
   D29        0.96111   0.00016   0.00000   0.00048   0.00049   0.96160
   D30       -1.13227   0.00007   0.00000  -0.00301  -0.00301  -1.13529
   D31       -1.01415  -0.00003   0.00000  -0.00181  -0.00180  -1.01596
   D32        1.10857  -0.00010   0.00000  -0.00303  -0.00303   1.10555
   D33       -3.13644   0.00003   0.00000  -0.00131  -0.00130  -3.13775
   D34        1.01415   0.00003   0.00000   0.00181   0.00180   1.01596
   D35       -1.10857   0.00010   0.00000   0.00303   0.00303  -1.10555
   D36        3.13644  -0.00003   0.00000   0.00131   0.00130   3.13775
         Item               Value     Threshold  Converged?
 Maximum Force            0.002777     0.000450     NO 
 RMS     Force            0.000613     0.000300     NO 
 Maximum Displacement     0.028445     0.001800     NO 
 RMS     Displacement     0.004642     0.001200     NO 
 Predicted change in Energy=-5.743399D-05
 GradGradGradGradGradGradGradGradGradGradGradGradGradGradGradGradGradGrad

 Leave Link  103 at Fri Jul 26 10:29:51 2019, MaxMem=  196608000 cpu:       0.0
 (Enter C:\G09W\l202.exe)
                          Input orientation:                          
 ---------------------------------------------------------------------
 Center     Atomic      Atomic             Coordinates (Angstroms)
 Number     Number       Type             X           Y           Z
 ---------------------------------------------------------------------
      1          7           0        0.505800    0.898679   -0.000011
      2          6           0       -0.088841    0.315312    1.209563
      3          6           0       -0.088852    0.315296   -1.209571
      4          6           0       -0.111032   -1.214573   -1.179063
      5          1           0       -1.118361    0.682611   -1.289589
      6          1           0        0.457714    0.675322   -2.086774
      7          6           0       -0.111021   -1.214557    1.179075
      8          1           0       -1.118349    0.682628    1.289586
      9          1           0        0.457733    0.675349    2.086756
     10          8           0       -0.752722   -1.691409    0.000012
     11          1           0        0.920104   -1.604840   -1.226040
     12          1           0       -0.672421   -1.626718   -2.021165
     13          1           0        0.920115   -1.604824    1.226048
     14          1           0       -0.672403   -1.626691    2.021187
     15          1           0        1.506342    0.716292   -0.000014
 ---------------------------------------------------------------------
                    Distance matrix (angstroms):
                    1          2          3          4          5
     1  N    0.000000
     2  C    1.468667   0.000000
     3  C    1.468667   2.419134   0.000000
     4  C    2.497295   2.836648   1.530334   0.000000
     5  H    2.085089   2.727743   1.095999   2.150869   0.000000
     6  H    2.099234   3.360680   1.094458   2.172352   1.766231
     7  C    2.497295   1.530334   2.836648   2.358137   3.272351
     8  H    2.085089   1.095999   2.727743   3.272351   2.579175
     9  H    2.099234   1.094458   3.360680   3.815871   3.726102
    10  O    2.879659   2.435299   2.435299   1.424555   2.726304
    11  H    2.818227   3.261459   2.169144   1.103520   3.064606
    12  H    3.442514   3.814400   2.184183   1.092775   2.463142
    13  H    2.818227   2.169144   3.261459   2.645773   3.964363
    14  H    3.442514   2.184183   3.814400   3.275146   4.061157
    15  H    1.017029   2.041682   2.041682   2.781059   2.924586
                    6          7          8          9         10
     6  H    0.000000
     7  C    3.815871   0.000000
     8  H    3.726102   2.150869   0.000000
     9  H    4.173531   2.172352   1.766231   0.000000
    10  O    3.379533   1.424555   2.726304   3.379533   0.000000
    11  H    2.480686   2.645773   3.964363   4.048168   2.075823
    12  H    2.565326   3.275146   4.061157   4.842704   2.023806
    13  H    4.048168   1.103520   3.064606   2.480686   2.075823
    14  H    4.842704   1.092775   2.463142   2.565326   2.023806
    15  H    2.335780   2.781059   2.924586   2.335780   3.301574
                   11         12         13         14         15
    11  H    0.000000
    12  H    1.780123   0.000000
    13  H    2.452087   3.616772   0.000000
    14  H    3.616772   4.042352   1.780123   0.000000
    15  H    2.689696   3.784409   2.689696   3.784409   0.000000
 Stoichiometry    C4H9NO
 Framework group  CS[SG(HNO),X(C4H8)]
 Deg. of freedom    21
 Full point group                 CS      NOp   2
 Largest Abelian subgroup         CS      NOp   2
 Largest concise Abelian subgroup CS      NOp   2
                         Standard orientation:                         
 ---------------------------------------------------------------------
 Center     Atomic      Atomic             Coordinates (Angstroms)
 Number     Number       Type             X           Y           Z
 ---------------------------------------------------------------------
      1          7           0        0.573831    1.345942    0.000000
      2          6           0       -0.012295    0.754007    1.209567
      3          6           0       -0.012295    0.754007   -1.209567
      4          6           0       -0.012295   -0.776022   -1.179069
      5          1           0       -1.047021    1.106360   -1.289587
      6          1           0        0.528998    1.121924   -2.086765
      7          6           0       -0.012295   -0.776022    1.179069
      8          1           0       -1.047021    1.106360    1.289587
      9          1           0        0.528998    1.121924    2.086765
     10          8           0       -0.647011   -1.262118    0.000000
     11          1           0        1.024390   -1.151300   -1.226044
     12          1           0       -0.567647   -1.196257   -2.021176
     13          1           0        1.024390   -1.151300    1.226044
     14          1           0       -0.567647   -1.196257    2.021176
     15          1           0        1.576912    1.178078    0.000000
 ---------------------------------------------------------------------
 Rotational constants (GHZ):      4.8534422      4.5848345      2.6620779
 Leave Link  202 at Fri Jul 26 10:29:51 2019, MaxMem=  196608000 cpu:       0.0
 (Enter C:\G09W\l301.exe)
 Standard basis: 6-311G(2d,d,p) (5D, 7F)
 Ernie: Thresh=  0.10000D-02 Tol=  0.10000D-05 Strict=F.
 There are    91 symmetry adapted basis functions of A'  symmetry.
 There are    71 symmetry adapted basis functions of A"  symmetry.
 Integral buffers will be    262144 words long.
 Raffenetti 2 integral format.
 Two-electron integral symmetry is turned on.
   162 basis functions,   264 primitive gaussians,   168 cartesian basis functions
    24 alpha electrons       24 beta electrons
       nuclear repulsion energy       262.4180463544 Hartrees.
 IExCor=  402 DFT=T Ex+Corr=B3LYP ExCW=0 ScaHFX=  0.200000
 ScaDFX=  0.800000  0.720000  1.000000  0.810000 ScalE2=  1.000000  1.000000
 IRadAn=      0 IRanWt=     -1 IRanGd=            0 ICorTp=0
 NAtoms=   15 NActive=   15 NUniq=    9 SFac= 2.78D+00 NAtFMM=   50 NAOKFM=F Big=F
 Leave Link  301 at Fri Jul 26 10:29:51 2019, MaxMem=  196608000 cpu:       0.0
 (Enter C:\G09W\l302.exe)
 NPDir=0 NMtPBC=     1 NCelOv=     1 NCel=       1 NClECP=     1 NCelD=      1
         NCelK=      1 NCelE2=     1 NClLst=     1 CellRange=     0.0.
 One-electron integrals computed using PRISM.
 One-electron integral symmetry used in STVInt
 NBasis=   162 RedAO= T  NBF=    91    71
 NBsUse=   162 1.00D-06 NBFU=    91    71
 Precomputing XC quadrature grid using
 IXCGrd= 2 IRadAn=           0 IRanWt=          -1 IRanGd=           0 AccXCQ= 0.00D+00.
 NRdTot=     941 NPtTot=      119744 NUsed=      124142 NTot=      124158
 NSgBfM=   168   168   168   168   168 NAtAll=    15    15.
 Leave Link  302 at Fri Jul 26 10:29:51 2019, MaxMem=  196608000 cpu:       0.0
 (Enter C:\G09W\l303.exe)
 DipDrv:  MaxL=1.
 Leave Link  303 at Fri Jul 26 10:29:52 2019, MaxMem=  196608000 cpu:       0.0
 (Enter C:\G09W\l401.exe)
 Initial guess read from the read-write file.
 B after Tr=     0.000000    0.000000    0.000000
         Rot=    1.000000    0.000000    0.000000    0.000000 Ang=   0.00 deg.
 Guess basis will be translated and rotated to current coordinates.
 Initial guess orbital symmetries:
       Occupied  (A') (A') (A") (A') (A") (A') (A') (A') (A") (A')
                 (A") (A') (A') (A") (A') (A') (A") (A") (A') (A")
                 (A") (A') (A') (A')
       Virtual   (A') (A') (A") (A') (A') (A") (A') (A") (A') (A")
                 (A') (A") (A") (A') (A") (A") (A') (A') (A") (A')
                 (A") (A') (A") (A') (A') (A') (A") (A') (A") (A")
                 (A") (A') (A') (A') (A") (A") (A') (A') (A') (A")
                 (A') (A') (A") (A') (A") (A") (A') (A') (A") (A')
                 (A") (A') (A") (A") (A') (A') (A") (A') (A') (A")
                 (A") (A") (A') (A") (A') (A') (A") (A') (A') (A")
                 (A') (A") (A') (A") (A') (A") (A') (A") (A') (A')
                 (A") (A") (A') (A') (A") (A') (A") (A') (A') (A')
                 (A") (A") (A') (A") (A") (A') (A") (A') (A") (A')
                 (A') (A") (A') (A") (A') (A') (A") (A") (A') (A")
                 (A') (A") (A') (A') (A") (A') (A") (A') (A") (A')
                 (A') (A") (A') (A") (A') (A") (A') (A') (A") (A')
                 (A') (A") (A') (A') (A") (A") (A') (A')
 The electronic state of the initial guess is 1-A'.
 Generating alternative initial guess.
 Harris functional with IExCor=  402 diagonalized for initial guess.
 ExpMin= 1.03D-01 ExpMax= 8.59D+03 ExpMxC= 1.30D+03 IAcc=1 IRadAn=         1 AccDes= 0.00D+00
 HarFok:  IExCor=  402 AccDes= 0.00D+00 IRadAn=         1 IDoV= 1
 ScaDFX=  1.000000  1.000000  1.000000  1.000000
 FoFCou: FMM=F IPFlag=           0 FMFlag=      100000 FMFlg1=           0
         NFxFlg=           0 DoJE=T BraDBF=F KetDBF=T FulRan=T
         Omega=  0.000000  0.000000  1.000000  0.000000  0.000000 ICntrl=     500 IOpCl=  0
         NMat0=    1 NMatS0=    1 NMatT0=    0 NMatD0=    1 NMtDS0=    0 NMtDT0=    0
         I1Cent=           4 NGrid=           0.
 Petite list used in FoFCou.
 Harris En= -287.876291504626    
 Leave Link  401 at Fri Jul 26 10:29:53 2019, MaxMem=  196608000 cpu:       1.0
 (Enter C:\G09W\l502.exe)
 Closed shell SCF:
 Requested convergence on RMS density matrix=1.00D-08 within 128 cycles.
 Requested convergence on MAX density matrix=1.00D-06.
 Requested convergence on             energy=1.00D-06.
 No special actions if energy rises.
 Using DIIS extrapolation, IDIIS=  1040.
 Integral symmetry usage will be decided dynamically.
       124009 words used for storage of precomputed grid.
 Keep R1 ints in memory in canonical form, NReq=103398436.
 IEnd=      228992 IEndB=      228992 NGot=   196608000 MDV=    95653707
 LenX=    95653707 LenY=    95625042
 Symmetry not used in FoFDir.
 MinBra= 0 MaxBra= 2 Meth= 1.
 IRaf=       0 NMat=   1 IRICut=       1 DoRegI=T DoRafI=F ISym2E= 0 JSym2E=0.
 Integral accuracy reduced to 1.0D-05 until final iterations.

 Cycle   1  Pass 0  IDiag  1:
 E= -287.873078839398    
 DIIS: error= 4.78D-04 at cycle   1 NSaved=   1.
 NSaved= 1 IEnMin= 1 EnMin= -287.873078839398     IErMin= 1 ErrMin= 4.78D-04
 ErrMax= 4.78D-04 EMaxC= 1.00D-01 BMatC= 4.80D-05 BMatP= 4.80D-05
 IDIUse=3 WtCom= 9.95D-01 WtEn= 4.78D-03
 Coeff-Com:  0.100D+01
 Coeff-En:   0.100D+01
 Coeff:      0.100D+01
 Gap=     0.255 Goal=   None    Shift=    0.000
 RMSDP=6.13D-05 MaxDP=1.58D-03              OVMax= 3.48D-03

 Cycle   2  Pass 0  IDiag  1:
 E= -287.873138644853     Delta-E=       -0.000059805455 Rises=F Damp=F
 DIIS: error= 1.08D-04 at cycle   2 NSaved=   2.
 NSaved= 2 IEnMin= 2 EnMin= -287.873138644853     IErMin= 2 ErrMin= 1.08D-04
 ErrMax= 1.08D-04 EMaxC= 1.00D-01 BMatC= 3.32D-06 BMatP= 4.80D-05
 IDIUse=3 WtCom= 9.99D-01 WtEn= 1.08D-03
 Coeff-Com:  0.587D-01 0.941D+00
 Coeff-En:   0.000D+00 0.100D+01
 Coeff:      0.586D-01 0.941D+00
 Gap=     0.254 Goal=   None    Shift=    0.000
 RMSDP=1.77D-05 MaxDP=4.25D-04 DE=-5.98D-05 OVMax= 6.31D-04

 Cycle   3  Pass 0  IDiag  1:
 E= -287.873137424700     Delta-E=        0.000001220153 Rises=F Damp=F
 DIIS: error= 1.55D-04 at cycle   3 NSaved=   3.
 NSaved= 3 IEnMin= 2 EnMin= -287.873138644853     IErMin= 2 ErrMin= 1.08D-04
 ErrMax= 1.55D-04 EMaxC= 1.00D-01 BMatC= 5.48D-06 BMatP= 3.32D-06
 IDIUse=3 WtCom= 4.45D-01 WtEn= 5.55D-01
 Coeff-Com: -0.240D-01 0.576D+00 0.448D+00
 Coeff-En:   0.000D+00 0.578D+00 0.422D+00
 Coeff:     -0.107D-01 0.577D+00 0.434D+00
 Gap=     0.255 Goal=   None    Shift=    0.000
 RMSDP=1.04D-05 MaxDP=2.37D-04 DE= 1.22D-06 OVMax= 3.59D-04

 Cycle   4  Pass 0  IDiag  1:
 E= -287.873141693922     Delta-E=       -0.000004269222 Rises=F Damp=F
 DIIS: error= 2.35D-05 at cycle   4 NSaved=   4.
 NSaved= 4 IEnMin= 4 EnMin= -287.873141693922     IErMin= 4 ErrMin= 2.35D-05
 ErrMax= 2.35D-05 EMaxC= 1.00D-01 BMatC= 8.60D-08 BMatP= 3.32D-06
 IDIUse=1 WtCom= 1.00D+00 WtEn= 0.00D+00
 Coeff-Com: -0.125D-01 0.208D+00 0.189D+00 0.615D+00
 Coeff:     -0.125D-01 0.208D+00 0.189D+00 0.615D+00
 Gap=     0.255 Goal=   None    Shift=    0.000
 RMSDP=2.15D-06 MaxDP=5.19D-05 DE=-4.27D-06 OVMax= 8.06D-05

 Initial convergence to 1.0D-05 achieved.  Increase integral accuracy.
 Cycle   5  Pass 1  IDiag  1:
 E= -287.873102111895     Delta-E=        0.000039582027 Rises=F Damp=F
 DIIS: error= 2.52D-05 at cycle   1 NSaved=   1.
 NSaved= 1 IEnMin= 1 EnMin= -287.873102111895     IErMin= 1 ErrMin= 2.52D-05
 ErrMax= 2.52D-05 EMaxC= 1.00D-01 BMatC= 6.43D-08 BMatP= 6.43D-08
 IDIUse=1 WtCom= 1.00D+00 WtEn= 0.00D+00
 Coeff-Com:  0.100D+01
 Coeff:      0.100D+01
 Gap=     0.255 Goal=   None    Shift=    0.000
 RMSDP=2.15D-06 MaxDP=5.19D-05 DE= 3.96D-05 OVMax= 1.20D-04

 Cycle   6  Pass 1  IDiag  1:
 E= -287.873102173166     Delta-E=       -0.000000061271 Rises=F Damp=F
 DIIS: error= 1.23D-05 at cycle   2 NSaved=   2.
 NSaved= 2 IEnMin= 2 EnMin= -287.873102173166     IErMin= 2 ErrMin= 1.23D-05
 ErrMax= 1.23D-05 EMaxC= 1.00D-01 BMatC= 1.98D-08 BMatP= 6.43D-08
 IDIUse=1 WtCom= 1.00D+00 WtEn= 0.00D+00
 Coeff-Com:  0.296D+00 0.704D+00
 Coeff:      0.296D+00 0.704D+00
 Gap=     0.255 Goal=   None    Shift=    0.000
 RMSDP=1.34D-06 MaxDP=2.29D-05 DE=-6.13D-08 OVMax= 4.05D-05

 Cycle   7  Pass 1  IDiag  1:
 E= -287.873102183172     Delta-E=       -0.000000010006 Rises=F Damp=F
 DIIS: error= 7.26D-06 at cycle   3 NSaved=   3.
 NSaved= 3 IEnMin= 3 EnMin= -287.873102183172     IErMin= 3 ErrMin= 7.26D-06
 ErrMax= 7.26D-06 EMaxC= 1.00D-01 BMatC= 9.50D-09 BMatP= 1.98D-08
 IDIUse=1 WtCom= 1.00D+00 WtEn= 0.00D+00
 Coeff-Com: -0.199D-01 0.408D+00 0.612D+00
 Coeff:     -0.199D-01 0.408D+00 0.612D+00
 Gap=     0.255 Goal=   None    Shift=    0.000
 RMSDP=5.42D-07 MaxDP=1.30D-05 DE=-1.00D-08 OVMax= 1.95D-05

 Cycle   8  Pass 1  IDiag  1:
 E= -287.873102190766     Delta-E=       -0.000000007594 Rises=F Damp=F
 DIIS: error= 2.04D-06 at cycle   4 NSaved=   4.
 NSaved= 4 IEnMin= 4 EnMin= -287.873102190766     IErMin= 4 ErrMin= 2.04D-06
 ErrMax= 2.04D-06 EMaxC= 1.00D-01 BMatC= 3.97D-10 BMatP= 9.50D-09
 IDIUse=1 WtCom= 1.00D+00 WtEn= 0.00D+00
 Coeff-Com: -0.160D-01 0.231D+00 0.363D+00 0.421D+00
 Coeff:     -0.160D-01 0.231D+00 0.363D+00 0.421D+00
 Gap=     0.255 Goal=   None    Shift=    0.000
 RMSDP=8.23D-08 MaxDP=2.18D-06 DE=-7.59D-09 OVMax= 3.03D-06

 Cycle   9  Pass 1  IDiag  1:
 E= -287.873102191044     Delta-E=       -0.000000000278 Rises=F Damp=F
 DIIS: error= 1.83D-07 at cycle   5 NSaved=   5.
 NSaved= 5 IEnMin= 5 EnMin= -287.873102191044     IErMin= 5 ErrMin= 1.83D-07
 ErrMax= 1.83D-07 EMaxC= 1.00D-01 BMatC= 4.43D-12 BMatP= 3.97D-10
 IDIUse=1 WtCom= 1.00D+00 WtEn= 0.00D+00
 Coeff-Com: -0.368D-02 0.441D-01 0.680D-01 0.126D+00 0.766D+00
 Coeff:     -0.368D-02 0.441D-01 0.680D-01 0.126D+00 0.766D+00
 Gap=     0.255 Goal=   None    Shift=    0.000
 RMSDP=1.33D-08 MaxDP=2.57D-07 DE=-2.78D-10 OVMax= 4.13D-07

 Cycle  10  Pass 1  IDiag  1:
 E= -287.873102191058     Delta-E=       -0.000000000015 Rises=F Damp=F
 DIIS: error= 3.60D-08 at cycle   6 NSaved=   6.
 NSaved= 6 IEnMin= 6 EnMin= -287.873102191058     IErMin= 6 ErrMin= 3.60D-08
 ErrMax= 3.60D-08 EMaxC= 1.00D-01 BMatC= 3.36D-13 BMatP= 4.43D-12
 IDIUse=1 WtCom= 1.00D+00 WtEn= 0.00D+00
 Coeff-Com: -0.366D-03 0.261D-02 0.315D-02 0.120D-01 0.244D+00 0.738D+00
 Coeff:     -0.366D-03 0.261D-02 0.315D-02 0.120D-01 0.244D+00 0.738D+00
 Gap=     0.255 Goal=   None    Shift=    0.000
 RMSDP=3.97D-09 MaxDP=1.12D-07 DE=-1.49D-11 OVMax= 1.70D-07

 SCF Done:  E(RB3LYP) =  -287.873102191     A.U. after   10 cycles
             Convg  =    0.3970D-08             -V/T =  2.0039
 KE= 2.867508402390D+02 PE=-1.196651474639D+03 EE= 3.596094858548D+02
 Leave Link  502 at Fri Jul 26 10:30:15 2019, MaxMem=  196608000 cpu:      22.0
 (Enter C:\G09W\l701.exe)
 Compute integral first derivatives.
 ... and contract with generalized density number  0.
 Leave Link  701 at Fri Jul 26 10:30:16 2019, MaxMem=  196608000 cpu:       0.0
 (Enter C:\G09W\l702.exe)
 L702 exits ... SP integral derivatives will be done elsewhere.
 Leave Link  702 at Fri Jul 26 10:30:16 2019, MaxMem=  196608000 cpu:       0.0
 (Enter C:\G09W\l703.exe)
 Compute integral first derivatives, UseDBF=F ICtDFT=           0.
 Integral derivatives from FoFDir, PRISM(SPDF).
 Calling FoFJK, ICntrl=      2127 FMM=F ISym2X=1 I1Cent= 0 IOpClX= 0 NMat=1 NMatS=1 NMatT=0.
 FoFCou: FMM=F IPFlag=           0 FMFlag=      100000 FMFlg1=         800
         NFxFlg=           0 DoJE=F BraDBF=F KetDBF=F FulRan=T
         Omega=  0.000000  0.000000  1.000000  0.000000  0.000000 ICntrl=    2127 IOpCl=  0
         NMat0=    1 NMatS0=    1 NMatT0=    0 NMatD0=    1 NMtDS0=    0 NMtDT0=    0
         I1Cent=           0 NGrid=           0.
 Petite list used in FoFCou.
 Leave Link  703 at Fri Jul 26 10:30:29 2019, MaxMem=  196608000 cpu:      13.0
 (Enter C:\G09W\l716.exe)
 Dipole        = 4.95066610D-01-8.98147879D-03 5.70144314D-15
 ***** Axes restored to original set *****
 -------------------------------------------------------------------
 Center     Atomic                   Forces (Hartrees/Bohr)
 Number     Number              X              Y              Z
 -------------------------------------------------------------------
      1        7           0.000006223   -0.000060725    0.000000000
      2        6          -0.000038220    0.000022983    0.000033953
      3        6          -0.000038220    0.000022983   -0.000033953
      4        6           0.000012099   -0.000008188   -0.000070862
      5        1           0.000023136   -0.000013256   -0.000009883
      6        1          -0.000018212   -0.000017310    0.000022723
      7        6           0.000012099   -0.000008187    0.000070862
      8        1           0.000023136   -0.000013256    0.000009883
      9        1          -0.000018212   -0.000017310   -0.000022723
     10        8           0.000000866   -0.000016528    0.000000000
     11        1          -0.000018779    0.000012915    0.000013838
     12        1           0.000018686    0.000018642    0.000029099
     13        1          -0.000018779    0.000012914   -0.000013838
     14        1           0.000018686    0.000018642   -0.000029100
     15        1           0.000035491    0.000045680    0.000000000
 -------------------------------------------------------------------
 Cartesian Forces:  Max     0.000070862 RMS     0.000026883
 Leave Link  716 at Fri Jul 26 10:30:29 2019, MaxMem=  196608000 cpu:       0.0
 (Enter C:\G09W\l103.exe)

 GradGradGradGradGradGradGradGradGradGradGradGradGradGradGradGradGradGrad
 Berny optimization.
 Using GEDIIS/GDIIS optimizer.
 Internal  Forces:  Max     0.000037892 RMS     0.000013534
 Search for a local minimum.
 Step number   2 out of a maximum of   89
 All quantities printed in internal units (Hartrees-Bohrs-Radians)
 RMS Force = .13534D-04 SwitMx=.10000D-02 MixMth= 2
 Mixed Optimization -- En-DIIS/RFO-DIIS
 Swaping is turned off.
 Update second derivatives using D2CorX and points    1    2
 DE= -5.89D-05 DEPred=-5.74D-05 R= 1.03D+00
 SS=  1.41D+00  RLast= 5.44D-02 DXNew= 5.0454D-01 1.6315D-01
 Trust test= 1.03D+00 RLast= 5.44D-02 DXMaxT set to 3.00D-01
 ITU=  1  0
     Eigenvalues ---    0.00510   0.00525   0.00981   0.02463   0.02557
     Eigenvalues ---    0.04028   0.04466   0.04555   0.04849   0.05132
     Eigenvalues ---    0.06136   0.06891   0.07917   0.07941   0.09045
     Eigenvalues ---    0.09098   0.09830   0.10489   0.10551   0.10911
     Eigenvalues ---    0.12468   0.19555   0.20644   0.23822   0.25057
     Eigenvalues ---    0.26947   0.28483   0.28510   0.30931   0.30934
     Eigenvalues ---    0.33070   0.33085   0.33336   0.33361   0.34207
     Eigenvalues ---    0.34422   0.35526   0.36864   0.42989
 En-DIIS/RFO-DIIS IScMMF=        0 using points:     2    1
 RFO step:  Lambda=-3.67109400D-08.
 DidBck=F Rises=F RFO-DIIS coefs:    1.02749   -0.02749
 Iteration  1 RMS(Cart)=  0.00036037 RMS(Int)=  0.00000053
 Iteration  2 RMS(Cart)=  0.00000019 RMS(Int)=  0.00000049
 ClnCor:  largest displacement from symmetrization is 3.76D-11 for atom    14.
 Variable       Old X    -DE/DX   Delta X   Delta X   Delta X     New X
                                  (DIIS)     (GDIIS)  (Total)
    R1        2.77538   0.00003  -0.00003  -0.00001  -0.00004   2.77534
    R2        2.77538   0.00003  -0.00003  -0.00001  -0.00004   2.77534
    R3        1.92191   0.00003  -0.00021   0.00021   0.00000   1.92190
    R4        2.89191  -0.00002  -0.00008   0.00004  -0.00004   2.89187
    R5        2.07114  -0.00003  -0.00010   0.00002  -0.00008   2.07106
    R6        2.06823  -0.00003  -0.00013   0.00003  -0.00010   2.06813
    R7        2.89191  -0.00002  -0.00008   0.00004  -0.00004   2.89187
    R8        2.07114  -0.00003  -0.00010   0.00002  -0.00008   2.07106
    R9        2.06823  -0.00003  -0.00013   0.00003  -0.00010   2.06813
   R10        2.69202   0.00002   0.00005   0.00005   0.00010   2.69212
   R11        2.08535  -0.00003  -0.00012   0.00002  -0.00010   2.08525
   R12        2.06505  -0.00004  -0.00014   0.00002  -0.00012   2.06492
   R13        2.69202   0.00002   0.00005   0.00005   0.00010   2.69212
   R14        2.08535  -0.00003  -0.00012   0.00002  -0.00010   2.08525
   R15        2.06505  -0.00004  -0.00014   0.00002  -0.00012   2.06492
    A1        1.93539   0.00001   0.00016   0.00012   0.00028   1.93567
    A2        1.90402   0.00001   0.00019   0.00029   0.00048   1.90450
    A3        1.90402   0.00001   0.00019   0.00029   0.00048   1.90450
    A4        1.96768  -0.00001  -0.00004   0.00005   0.00001   1.96769
    A5        1.88319   0.00001   0.00007   0.00004   0.00011   1.88329
    A6        1.90416   0.00000   0.00004  -0.00003   0.00001   1.90417
    A7        1.89957   0.00000  -0.00002   0.00003   0.00000   1.89957
    A8        1.93058   0.00000   0.00000  -0.00009  -0.00010   1.93048
    A9        1.87584   0.00000  -0.00004   0.00001  -0.00003   1.87581
   A10        1.96768  -0.00001  -0.00004   0.00005   0.00001   1.96769
   A11        1.88319   0.00001   0.00007   0.00004   0.00011   1.88329
   A12        1.90416   0.00000   0.00004  -0.00003   0.00001   1.90417
   A13        1.89957   0.00000  -0.00002   0.00003   0.00000   1.89957
   A14        1.93058   0.00000   0.00000  -0.00009  -0.00010   1.93048
   A15        1.87584   0.00000  -0.00004   0.00001  -0.00003   1.87581
   A16        1.93655   0.00000  -0.00003   0.00001  -0.00003   1.93653
   A17        1.91682   0.00000   0.00002  -0.00001   0.00001   1.91683
   A18        1.94886   0.00000   0.00000  -0.00003  -0.00002   1.94884
   A19        1.91533  -0.00001  -0.00006  -0.00004  -0.00010   1.91523
   A20        1.85476   0.00000   0.00000  -0.00001   0.00000   1.85476
   A21        1.89003   0.00001   0.00006   0.00008   0.00015   1.89018
   A22        1.93655   0.00000  -0.00003   0.00001  -0.00003   1.93653
   A23        1.91682   0.00000   0.00002  -0.00001   0.00001   1.91683
   A24        1.94886   0.00000   0.00000  -0.00003  -0.00002   1.94884
   A25        1.91533  -0.00001  -0.00006  -0.00004  -0.00010   1.91523
   A26        1.85476   0.00000   0.00000  -0.00001   0.00000   1.85476
   A27        1.89003   0.00001   0.00006   0.00008   0.00015   1.89018
   A28        1.94991   0.00001   0.00004  -0.00006  -0.00001   1.94989
    D1        0.86757   0.00001  -0.00008  -0.00029  -0.00037   0.86721
    D2       -1.23059   0.00001  -0.00008  -0.00037  -0.00045  -1.23104
    D3        3.01969   0.00000  -0.00008  -0.00040  -0.00048   3.01921
    D4       -1.22981  -0.00001  -0.00053  -0.00090  -0.00144  -1.23125
    D5        2.95521  -0.00001  -0.00053  -0.00099  -0.00152   2.95368
    D6        0.92230  -0.00002  -0.00053  -0.00101  -0.00155   0.92075
    D7       -0.86757  -0.00001   0.00008   0.00029   0.00037  -0.86721
    D8        1.23059  -0.00001   0.00008   0.00037   0.00045   1.23104
    D9       -3.01969   0.00000   0.00008   0.00040   0.00048  -3.01921
   D10        1.22981   0.00001   0.00053   0.00090   0.00144   1.23125
   D11       -2.95521   0.00001   0.00053   0.00099   0.00152  -2.95368
   D12       -0.92230   0.00002   0.00053   0.00101   0.00155  -0.92075
   D13       -0.94488   0.00000   0.00009   0.00010   0.00019  -0.94469
   D14        1.17575  -0.00001   0.00001   0.00005   0.00005   1.17581
   D15       -3.01054   0.00000   0.00010   0.00013   0.00023  -3.01031
   D16        1.14385   0.00001   0.00014   0.00020   0.00034   1.14418
   D17       -3.01871   0.00000   0.00006   0.00014   0.00020  -3.01851
   D18       -0.92182   0.00001   0.00015   0.00022   0.00037  -0.92145
   D19       -3.08223   0.00000   0.00007   0.00018   0.00025  -3.08199
   D20       -0.96160  -0.00001  -0.00001   0.00012   0.00011  -0.96150
   D21        1.13529   0.00000   0.00008   0.00020   0.00028   1.13557
   D22        0.94488   0.00000  -0.00009  -0.00010  -0.00019   0.94469
   D23       -1.17575   0.00001  -0.00001  -0.00005  -0.00005  -1.17581
   D24        3.01054   0.00000  -0.00010  -0.00013  -0.00023   3.01031
   D25       -1.14385  -0.00001  -0.00014  -0.00020  -0.00034  -1.14418
   D26        3.01871   0.00000  -0.00006  -0.00014  -0.00020   3.01851
   D27        0.92182  -0.00001  -0.00015  -0.00022  -0.00037   0.92145
   D28        3.08223   0.00000  -0.00007  -0.00018  -0.00025   3.08199
   D29        0.96160   0.00001   0.00001  -0.00012  -0.00011   0.96150
   D30       -1.13529   0.00000  -0.00008  -0.00020  -0.00028  -1.13557
   D31       -1.01596   0.00000  -0.00005  -0.00009  -0.00014  -1.01610
   D32        1.10555   0.00000  -0.00008  -0.00013  -0.00021   1.10533
   D33       -3.13775   0.00000  -0.00004  -0.00006  -0.00010  -3.13784
   D34        1.01596   0.00000   0.00005   0.00009   0.00014   1.01610
   D35       -1.10555   0.00000   0.00008   0.00013   0.00021  -1.10533
   D36        3.13775   0.00000   0.00004   0.00006   0.00010   3.13784
         Item               Value     Threshold  Converged?
 Maximum Force            0.000038     0.000450     YES
 RMS     Force            0.000014     0.000300     YES
 Maximum Displacement     0.002433     0.001800     NO 
 RMS     Displacement     0.000360     0.001200     YES
 Predicted change in Energy=-8.451837D-08
 GradGradGradGradGradGradGradGradGradGradGradGradGradGradGradGradGradGrad

 Leave Link  103 at Fri Jul 26 10:30:30 2019, MaxMem=  196608000 cpu:       1.0
 (Enter C:\G09W\l202.exe)
                          Input orientation:                          
 ---------------------------------------------------------------------
 Center     Atomic      Atomic             Coordinates (Angstroms)
 Number     Number       Type             X           Y           Z
 ---------------------------------------------------------------------
      1          7           0        0.505564    0.898604   -0.000011
      2          6           0       -0.088807    0.315219    1.209661
      3          6           0       -0.088818    0.315204   -1.209669
      4          6           0       -0.111101   -1.214640   -1.179103
      5          1           0       -1.118233    0.682568   -1.290101
      6          1           0        0.458024    0.675042   -2.086713
      7          6           0       -0.111090   -1.214624    1.179115
      8          1           0       -1.118221    0.682585    1.290097
      9          1           0        0.458043    0.675070    2.086695
     10          8           0       -0.752914   -1.691371    0.000012
     11          1           0        0.919966   -1.604970   -1.225864
     12          1           0       -0.672476   -1.626731   -2.021157
     13          1           0        0.919977   -1.604954    1.225871
[...]
     5  H   -0.001711  -0.000947   0.002371
     6  H    0.000377   0.001243  -0.006069
     7  C    0.415289   0.479281   0.019536
     8  H    0.004332  -0.003965   0.002371
     9  H   -0.003092  -0.004654  -0.006069
    10  O   -0.047828  -0.072521  -0.007390
    11  H   -0.001801  -0.001960  -0.005842
    12  H   -0.001960   0.002750   0.000105
    13  H    0.635721  -0.032369  -0.005842
    14  H   -0.032369   0.578739   0.000105
    15  H   -0.005842   0.000105   0.525062
 Mulliken atomic charges:
              1
     1  N   -0.148450
     2  C   -0.151395
     3  C   -0.151395
     4  C   -0.018381
     5  H    0.084769
     6  H    0.070500
     7  C   -0.018381
     8  H    0.084769
     9  H    0.070500
    10  O   -0.262193
    11  H    0.063081
    12  H    0.075933
    13  H    0.063081
    14  H    0.075933
    15  H    0.161630
 Sum of Mulliken atomic charges =   0.00000
 Mulliken charges with hydrogens summed into heavy atoms:
              1
     1  N    0.013180
     2  C    0.003874
     3  C    0.003874
     4  C    0.120633
     7  C    0.120633
    10  O   -0.262193
 Sum of Mulliken charges with hydrogens summed into heavy atoms =   0.00000
 Electronic spatial extent (au):  <R**2>=            522.4400
 Charge=              0.0000 electrons
 Dipole moment (field-independent basis, Debye):
    X=              1.4063    Y=             -0.0824    Z=              0.0000  Tot=              1.4087
 Quadrupole moment (field-independent basis, Debye-Ang):
   XX=            -36.6698   YY=            -44.7811   ZZ=            -33.1684
   XY=             -2.1109   XZ=              0.0000   YZ=              0.0000
 Traceless Quadrupole moment (field-independent basis, Debye-Ang):
   XX=              1.5366   YY=             -6.5747   ZZ=              5.0380
   XY=             -2.1109   XZ=              0.0000   YZ=              0.0000
 Octapole moment (field-independent basis, Debye-Ang**2):
  XXX=              3.7859  YYY=            -10.1267  ZZZ=              0.0000  XYY=              0.2438
  XXY=              2.8756  XXZ=              0.0000  XZZ=             -1.3856  YZZ=             -2.0519
  YYZ=              0.0000  XYZ=              0.0000
 Hexadecapole moment (field-independent basis, Debye-Ang**3):
 XXXX=            -90.4017 YYYY=           -317.6961 ZZZZ=           -303.9308 XXXY=            -23.8774
 XXXZ=              0.0000 YYYX=            -34.6966 YYYZ=              0.0000 ZZZX=              0.0000
 ZZZY=              0.0000 XXYY=            -61.9338 XXZZ=            -65.7211 YYZZ=            -92.6244
 XXYZ=              0.0000 YYXZ=              0.0000 ZZXY=             -2.8677
 N-N= 2.624160139412D+02 E-N=-1.194919181598D+03  KE= 2.857296568279D+02
 Symmetry A'   KE= 2.025709545802D+02
 Symmetry A"   KE= 8.315870224774D+01
 Leave Link  601 at Fri Jul 26 11:03:28 2019, MaxMem=  196608000 cpu:       1.0
 (Enter C:\G09W\l9999.exe)
 1|1|UNPC-UC-CHEM-SMA211|SP|RMP2-FC|CBSB3|C4H9N1O1|MASTERS GROUP|26-Jul
 -2019|0||#P Geom=AllCheck Guess=TCheck SCRF=Check MP2/CBSB3 CBSExtrap=
 (NMin=10,MinPop)||MP||0,1|N,0,0.5055638346,0.8986043422,-0.0000106504|
 C,0,-0.0888065697,0.3152193792,1.2096610664|C,0,-0.0888176046,0.315203
 5109,-1.2096692922|C,0,-0.1111008416,-1.2146399312,-1.1791029596|H,0,-
 1.1182326691,0.6825677958,-1.2901007028|H,0,0.4580235822,0.6750424677,
 -2.0867126468|C,0,-0.1110900855,-1.2146244637,1.1791150055|H,0,-1.1182
 209005,0.6825847193,1.2900970485|H,0,0.4580426177,0.675069841,2.086694
 7121|O,0,-0.7529144871,-1.6913712727,0.0000120773|H,0,0.9199658565,-1.
 6049698941,-1.2258635704|H,0,-0.6724763986,-1.6267305094,-2.0211570784
 |H,0,0.9199770392,-1.6049538133,1.225871331|H,0,-0.6724579609,-1.62670
 39958,2.021179651|H,0,1.5063506572,0.7175790976,-0.0000140278||Version
 =IA32W-G09RevB.01|State=1-A'|HF=-286.0932979|MP2=-287.2061864|E2(CBS)=
 -1.2204775|CBS-Int=-1.1845712|OIii=9.5926341|RMSD=8.361e-009|PG=CS [SG
 (H1N1O1),X(C4H8)]||@


 THE PROBLEM WITH THE LADDER OF SUCCESS IS YOU CAN'T
 CLIMB IT WHILE YOU'RE TWIDDLING YOUR THUMBS.

 Complete Basis Set (CBS) Extrapolation:
 M. R. Nyden and G. A. Petersson, JCP 75, 1843 (1981)
 G. A. Petersson and M. A. Al-Laham, JCP 94, 6081 (1991)
 G. A. Petersson, T. Tensfeldt, and J. A. Montgomery, JCP 94, 6091 (1991)
 J. A. Montgomery, J. W. Ochterski, and G. A. Petersson, JCP 101, 5900 (1994)

 Temperature=               298.150000 Pressure=                       1.000000
 E(ZPE)=                      0.133033 E(Thermal)=                     0.138472
 E(SCF)=                   -286.093298 DE(MP2)=                       -1.112888
 DE(CBS)=                    -0.107589 DE(MP34)=                      -0.057564
 DE(CCSD)=                   -0.029956 DE(Int)=                        0.035906
 DE(Empirical)=              -0.055541
 CBS-QB3 (0 K)=            -287.287898 CBS-QB3 Energy=              -287.282459
 CBS-QB3 Enthalpy=         -287.281515 CBS-QB3 Free Energy=         -287.316455
 1|1|UNPC-UC-CHEM-SMA211|Mixed|CBS-QB3|CBS-QB3|C4H9N1O1|MASTERS GROUP|2
 6-Jul-2019|0||#P CBS-QB3 Geom = Checkpoint Guess = Read Opt = Readfc F
 req=noraman||MP||0,1|N,0,0.5055638346,0.8986043422,-0.0000106504|C,0,-
 0.0888065697,0.3152193792,1.2096610664|C,0,-0.0888176046,0.3152035109,
 -1.2096692922|C,0,-0.1111008416,-1.2146399312,-1.1791029596|H,0,-1.118
 2326691,0.6825677958,-1.2901007028|H,0,0.4580235822,0.6750424677,-2.08
 67126468|C,0,-0.1110900855,-1.2146244637,1.1791150055|H,0,-1.118220900
 5,0.6825847193,1.2900970485|H,0,0.4580426177,0.675069841,2.0866947121|
 O,0,-0.7529144871,-1.6913712727,0.0000120773|H,0,0.9199658565,-1.60496
 98941,-1.2258635704|H,0,-0.6724763986,-1.6267305094,-2.0211570784|H,0,
 0.9199770392,-1.6049538133,1.225871331|H,0,-0.6724579609,-1.6267039958
 ,2.021179651|H,0,1.5063506572,0.7175790976,-0.0000140278||Version=IA32
 W-G09RevB.01|State=1-A'|HF/CbsB3=-286.0932979|E2(CBS)/CbsB3=-1.2204775
 |CBS-Int/CbsB3=0.0359063|OIii/CbsB3=9.5926341|MP2/CbsB4=-286.9522468|M
 P4(SDQ)/CbsB4=-287.0098112|MP4(SDQ)/6-31+G(d')=-286.9341229|QCISD(T)/6
 -31+G(d')=-286.9640793|CBSQB3=-287.2878983|FreqCoord=0.95537719,1.6981
 161086,-0.0000201263,-0.1678200956,0.5956782984,2.2859281292,-0.167840
 9485,0.5956483117,-2.2859436736,-0.2099501638,-2.29533682,-2.228181676
 ,-2.1131534975,1.2898662013,-2.4379370121,0.8655391328,1.2756453921,-3
 .9433154204,-0.2099298376,-2.2953075907,2.2282044395,-2.113131258,1.28
 98981819,2.4379301066,0.8655751046,1.2756971201,3.9432815288,-1.422802
 1821,-3.1962284944,0.0000228228,1.7384835205,-3.0329535515,-2.31654642
 44,-1.2707962241,-3.0740751548,-3.8194333497,1.7385046527,-3.032923163
 ,2.3165610897,-1.270761382,-3.0740250514,3.8194760057,2.8465902023,1.3
 560279731,-0.0000265086|PG=CS [SG(H1N1O1),X(C4H8)]|NImag=0||0.65199852
 ,0.01007966,0.21093536,-0.00000093,0.00000160,0.46205644,-0.12115997,-
 0.01224455,0.02521452,0.59795673,-0.04017847,-0.08358709,0.06028017,-0
 .01771004,0.45140219,0.03702102,0.01962073,-0.15765529,0.05622421,0.05
 298517,0.54234357,-0.12116054,-0.01224506,-0.02521469,0.01177277,0.007
 91148,0.00792740,0.59795570,-0.04017951,-0.08358814,-0.06028077,0.0079
 1148,0.00580553,0.01221343,-0.01771126,0.45140080,-0.03702082,-0.01962
 159,-0.15765367,-0.00792800,-0.01221413,-0.04233124,-0.05622449,-0.052
 98381,0.54234598,-0.00011471,-0.02012933,-0.00749050,0.00020525,0.0001
 8587,-0.00041822,-0.08379821,0.01165230,-0.00225097,0.56477331,-0.0059
 0242,-0.01814045,-0.01356788,-0.00051705,-0.00160808,-0.00234105,0.012
 59490,-0.17360266,-0.00693830,-0.00667534,0.46558916,-0.00718917,-0.04
 034569,-0.01320243,-0.00053582,-0.00270526,0.00815688,-0.00074784,0.00
 838494,-0.07923234,0.07888881,0.06068412,0.53272132,-0.01728141,-0.002
 03266,-0.00689922,0.00009217,0.00016049,0.00123855,-0.26713623,0.08167
 362,-0.01103176,-0.00158784,0.00009685,0.00197586,0.29431985,-0.017066
 53,0.00441153,-0.00283224,0.00006710,-0.00016277,0.00071975,0.08188330
 ,-0.07725567,0.00699813,0.03486989,-0.01604070,-0.00032694,-0.08586378
 ,0.08671339,-0.03226842,0.00393390,-0.00646716,-0.00221427,0.00058416,
 0.00183920,-0.00623049,0.00551786,-0.05024861,0.00035589,0.00119851,0.
 00030913,0.01996361,-0.00010438,0.05578761,0.00849131,0.00481309,-0.01
 565417,-0.00112747,-0.00112837,-0.00234811,-0.11888175,-0.04478198,0.1
 0785420,-0.00077832,0.00275654,-0.00071865,-0.01349172,-0.01038140,0.0
 2291765,0.12221573,0.00938542,0.00523523,-0.01367475,-0.00165274,-0.00
 084478,-0.00206828,-0.04458345,-0.07995767,0.06970819,-0.01761117,-0.0
 0456970,0.02612414,0.00504518,0.00385890,-0.00933254,0.04986955,0.0829
 8246,0.01435980,0.00575321,-0.02803420,-0.00493781,-0.00269146,-0.0026
 0457,0.10090739,0.06615639,-0.20329729,0.00138291,0.00112107,-0.000441
 09,-0.00033643,-0.00125179,0.00273501,-0.11136683,-0.07103133,0.230255
 58,-0.00011458,-0.02012886,0.00749064,-0.08379818,0.01165225,0.0022508
 6,0.00020526,0.00018590,0.00041829,0.00785794,0.00992131,0.01004771,0.
 00000476,0.00020322,0.00006789,-0.00030149,-0.00101026,0.00007944,0.56
 477187,-0.00590220,-0.01813974,0.01356800,0.01259498,-0.17360267,0.006
 93942,-0.00051702,-0.00160802,0.00234118,0.00992124,0.00862644,0.00594
 129,-0.00010033,-0.00011325,0.00001673,-0.00003076,-0.00080391,-0.0010
 4657,-0.00667693,0.46558757,0.00718913,0.04034594,-0.01320327,0.000747
 71,-0.00838381,-0.07923235,0.00053589,0.00270539,0.00815681,-0.0100484
 1,-0.00594221,-0.05440375,-0.00034473,0.00002395,-0.00062972,-0.000760
 26,-0.00254122,-0.00026871,-0.07888901,-0.06068317,0.53272435,-0.01728
 105,-0.00203260,0.00689935,-0.26713607,0.08167371,0.01103267,0.0000921
 8,0.00016047,-0.00123854,0.00000477,-0.00010032,0.00034473,0.00060961,
 0.00034263,0.00078140,0.00039772,-0.00012586,0.00008280,-0.00158786,0.
 00009682,-0.00197585,0.29431948,-0.01706608,0.00441152,0.00283225,0.08
 188331,-0.07725584,-0.00699853,0.00006713,-0.00016279,-0.00071972,0.00
 020322,-0.00011325,-0.00002396,0.00034262,0.00006601,-0.00016012,0.000
 00205,-0.00007185,-0.00017119,0.03486989,-0.01604071,0.00032684,-0.085
 86404,0.08671339,0.03226874,-0.00393402,-0.00646751,0.00623139,-0.0055
 1825,-0.05024860,0.00221428,-0.00058413,0.00183920,-0.00006790,-0.0000
 1674,-0.00062972,-0.00078141,0.00016012,-0.00023061,-0.00020401,0.0001
 8535,0.00025467,-0.00035633,-0.00119830,0.00030916,-0.01996466,0.00010
 475,0.05578797,0.00849133,0.00481324,0.01565377,-0.11888366,-0.0447840
 0,-0.10785438,-0.00112740,-0.00112831,0.00234811,-0.00030148,-0.000030
 74,0.00076026,0.00039773,0.00000205,0.00020401,0.00044291,0.00007753,0
 .00059786,-0.00077833,0.00275654,0.00071862,-0.01349192,-0.01038169,-0
 .02291737,0.12221776,0.00938535,0.00523534,0.01367423,-0.04458541,-0.0
 7995945,-0.06970940,-0.00165265,-0.00084472,0.00206827,-0.00101024,-0.
 00080386,0.00254124,-0.00012587,-0.00007185,-0.00018535,0.00007753,0.0
 0050064,0.00087336,-0.01761143,-0.00457006,-0.02612392,0.00504527,0.00
 385904,0.00933248,0.04987165,0.08298432,-0.01436026,-0.00575369,-0.028
 03432,-0.10090758,-0.06615760,-0.20329361,0.00493782,0.00269144,-0.002
 60470,-0.00007942,0.00104657,-0.00026876,-0.00008280,0.00017119,0.0002
 5467,-0.00059787,-0.00087338,-0.00131971,-0.00138267,-0.00112104,-0.00
 044073,0.00033651,0.00125187,0.00273508,0.11136717,0.07103281,0.230251
 68,0.00059941,0.00298699,0.,-0.00081856,-0.00574365,-0.00962527,-0.000
 81839,-0.00574341,0.00962519,-0.11258149,-0.03701216,0.02952542,0.0014
 6068,-0.00190751,-0.00080392,0.00165418,-0.00068168,-0.00027297,-0.112
 58230,-0.03701294,-0.02952533,0.00146070,-0.00190749,0.00080394,0.0016
 5418,-0.00068171,0.00027298,0.23997057,0.00364029,0.01073503,-0.000000
 07,-0.02291710,-0.01535506,-0.04139356,-0.02291660,-0.01535436,0.04139
 374,-0.03303858,-0.08811270,0.02138722,-0.00032468,0.00376648,-0.00036
 802,-0.00103665,-0.00893817,0.00019491,-0.03303954,-0.08811354,-0.0213
 8782,-0.00032466,0.00376650,0.00036799,-0.00103666,-0.00893822,-0.0001
 9476,0.10183583,0.18064142,-0.00000001,-0.00000006,0.00328239,-0.00940
 230,-0.01204197,-0.01807096,0.00940245,0.01204199,-0.01807184,0.058333
 03,0.04289851,-0.15685724,-0.00129045,-0.00070941,0.00082583,0.0004576
 8,0.00350143,0.00185432,-0.05833300,-0.04289908,-0.15685560,0.00129045
 ,0.00070939,0.00082580,-0.00045766,-0.00350128,0.00185438,0.00000026,0
 .00000127,0.44442441,0.00165299,-0.00008833,0.00099352,0.00018374,-0.0
 0050584,0.00078505,-0.00139682,-0.00099743,-0.00269053,-0.24521555,0.0
 8023582,-0.00429240,0.00134660,-0.00028937,-0.00030736,0.00041507,0.00
 118914,-0.00038237,-0.00022179,-0.00107448,-0.00424813,-0.00016080,-0.
 00009143,-0.00022014,0.00008312,0.00024281,0.00006023,-0.01976072,-0.0
 0156417,0.01834553,0.27488112,-0.00078318,0.00341665,0.00100172,0.0000
 4822,-0.00007040,-0.00009154,0.03400203,-0.01445322,0.00175592,0.07910
 019,-0.08173670,-0.00274608,-0.00023345,-0.00666984,-0.00034473,-0.000
 60998,0.00113669,0.00023116,-0.00043112,-0.00039557,-0.00162800,-0.000
 04726,-0.00002185,0.00022833,0.00000099,0.00011221,-0.00011054,-0.0144
 1164,0.00698251,0.00474591,-0.08469290,0.08685232,0.00115353,0.0002600
 1,0.00044808,-0.00051131,0.00001191,-0.00068859,-0.00241406,-0.0007564
 7,0.00121164,-0.00626712,-0.00284197,-0.05094487,0.00041179,0.00073835
 ,0.00109188,-0.00016747,-0.00015898,0.00024010,0.00592960,0.00035963,0
 .00511437,-0.00012841,0.00022604,-0.00007510,-0.00010222,-0.00027058,0
 .00002909,0.03523523,-0.00481282,-0.01612325,-0.00986403,-0.00235036,0
 .05642143,0.00141282,-0.00158436,-0.00046837,-0.00014988,-0.00008005,0
 .00079400,0.00001722,0.00246313,0.00046270,-0.12792880,-0.05368711,-0.
 11141442,0.00061976,-0.00033361,0.00039248,-0.00001045,-0.00032724,0.0
 0001401,-0.00106324,-0.00099843,0.00246857,0.00004859,0.00000388,-0.00
 009486,-0.00001829,0.00011175,-0.00008833,0.00988453,0.00639774,0.0180
 8978,-0.01411493,-0.01127488,-0.02117486,0.12986491,-0.00029024,-0.008
 67308,-0.00196126,-0.00075873,-0.00040626,0.00189980,-0.01776484,-0.00
 669554,-0.02527595,-0.05320620,-0.08945836,-0.07890504,0.00078608,0.00
 124194,-0.00004738,-0.00028902,0.00049712,0.00088013,-0.00123661,-0.00
 066314,0.00206850,0.00011699,0.00009054,-0.00015993,0.00006171,0.00019
 266,-0.00015847,0.00693925,0.00626438,0.01338851,0.00681387,0.00538101
 ,0.00913193,0.05852415,0.09195145,0.00003903,0.00032865,0.00141104,-0.
 00009455,0.00091206,-0.00058417,0.00001188,-0.00062739,0.00294911,-0.1
 0123169,-0.07288869,-0.18920185,0.00017921,-0.00032196,0.00008599,-0.0
 0004036,-0.00096856,-0.00002303,0.00477377,0.00272843,-0.00150908,0.00
 003541,-0.00007625,0.00002919,-0.00008305,-0.00024652,0.00013684,-0.01
 143919,-0.00694163,-0.03532635,-0.00105526,0.00027361,0.00226342,0.109
 74842,0.07850945,0.22100594,0.00165297,-0.00008834,-0.00099353,-0.0013
 9677,-0.00099738,0.00269057,0.00018374,-0.00050585,-0.00078505,-0.0002
 2180,-0.00107443,0.00424819,-0.00016080,-0.00009143,0.00022014,0.00008
 312,0.00024282,-0.00006024,-0.24521545,0.08023590,0.00429311,0.0013466
 0,-0.00028937,0.00030736,0.00041508,0.00118915,0.00038235,-0.01976121,
 -0.00156437,-0.01834547,0.00160888,0.00043127,-0.00190284,0.00049104,-
 0.00008857,-0.00027558,0.27488130,-0.00078321,0.00341663,-0.00100175,0
 .03400204,-0.01445324,-0.00175603,0.00004822,-0.00007040,0.00009153,-0
 .00043119,-0.00039555,0.00162807,-0.00004726,-0.00002186,-0.00022833,0
 .00000099,0.00011222,0.00011054,0.07910030,-0.08173662,0.00274576,-0.0
 0023345,-0.00666985,0.00034484,-0.00060998,0.00113669,-0.00023116,-0.0
 1441215,0.00698252,-0.00474608,0.00043129,-0.00021498,0.00027836,0.000
 05222,-0.00000768,0.00008309,-0.08469275,0.08685239,-0.00115353,-0.000
 26004,0.00044812,0.00241364,0.00075669,0.00121160,0.00051131,-0.000011
 91,-0.00068859,-0.00592955,-0.00035955,0.00511437,0.00012841,-0.000226
 04,-0.00007510,0.00010222,0.00027058,0.00002908,0.00626786,0.00284164,
 -0.05094504,-0.00041179,-0.00073825,0.00109188,0.00016748,0.00015895,0
 .00024010,-0.03523501,0.00481253,-0.01612276,0.00190282,-0.00027835,0.
 00069416,0.00033345,-0.00018783,0.00008863,0.00986315,0.00235074,0.056
 42119,0.00141283,-0.00158435,0.00046840,0.00001721,0.00246313,-0.00046
 270,-0.00014988,-0.00008007,-0.00079400,-0.00106331,-0.00099849,-0.002
 46856,0.00004859,0.00000388,0.00009486,-0.00001829,0.00011175,0.000088
 33,-0.12792686,-0.05368499,0.11141456,0.00061976,-0.00033361,-0.000392
 48,-0.00001045,-0.00032723,-0.00001401,0.00988447,0.00639757,-0.018090
 28,0.00049104,0.00005222,-0.00033346,0.00046377,0.00005264,-0.00056330
 ,-0.01411472,-0.01127461,0.02117516,0.12986290,-0.00029022,-0.00867306
 ,0.00196140,-0.01776461,-0.00669520,0.02527624,-0.00075874,-0.00040629
 ,-0.00189979,-0.00123670,-0.00066320,-0.00206850,0.00011699,0.00009054
 ,0.00015993,0.00006171,0.00019267,0.00015847,-0.05320415,-0.08945636,0
 .07890421,0.00078608,0.00124195,0.00004736,-0.00028903,0.00049712,-0.0
 0088013,0.00693928,0.00626430,-0.01338912,-0.00008856,-0.00000768,0.00
 018783,0.00005264,0.00045789,-0.00076293,0.00681380,0.00538089,-0.0091
 3203,0.05852200,0.09194939,-0.00003903,-0.00032851,0.00141101,-0.00001
 162,0.00062749,0.00294877,0.00009455,-0.00091206,-0.00058413,-0.004773
 76,-0.00272843,-0.00150895,-0.00003541,0.00007625,0.00002919,0.0000830
 5,0.00024651,0.00013683,0.10123183,0.07288787,-0.18920578,-0.00017923,
 0.00032195,0.00008599,0.00004037,0.00096856,-0.00002303,0.01143869,0.0
 0694102,-0.03532620,0.00027558,-0.00008309,0.00008862,0.00056328,0.000
 76291,-0.00129645,0.00105532,-0.00027355,0.00226334,-0.10974836,-0.078
 50829,0.22101001,-0.39859990,0.04946547,0.00000123,-0.01575731,0.00708
 086,0.00074436,-0.01575764,0.00708091,-0.00074432,0.00075026,0.0003926
 3,0.00157587,0.00075824,-0.00143845,-0.00317349,0.00090944,0.00007103,
 -0.00015588,0.00075025,0.00039261,-0.00157588,0.00075830,-0.00143838,0
 .00317345,0.00090943,0.00007103,0.00015587,-0.00024603,-0.00050844,0.,
 0.00020804,-0.00115048,0.00013565,0.00048294,0.00033951,-0.00000475,0.
 00020803,-0.00115048,-0.00013563,0.00048294,0.00033951,0.00000474,0.42
 414301,0.09595134,-0.02699573,-0.00000064,-0.01835690,-0.00320687,0.00
 470386,-0.01835741,-0.00320685,-0.00470367,-0.00259396,0.00102961,0.00
 043045,0.00050618,0.00018715,-0.00064025,0.00067670,0.00067014,0.00071
 310,-0.00259396,0.00102960,-0.00043044,0.00050623,0.00018720,0.0006401
 7,0.00067669,0.00067013,-0.00071311,0.00081299,-0.00059110,0.,0.000479
 56,-0.00031117,-0.00000288,0.00068017,-0.00017296,-0.00000137,0.000479
 55,-0.00031116,0.00000288,0.00068017,-0.00017296,0.00000136,-0.0595473
 3,0.03119498,0.00000092,-0.00000043,-0.05833923,0.03571178,-0.00644515
 ,-0.00179065,-0.03571141,0.00644510,-0.00179034,-0.00040309,0.00067604
 ,0.00038930,-0.00309522,-0.00311498,-0.00530730,0.00044294,0.00061284,
 0.00048301,0.00040312,-0.00067605,0.00038932,0.00309516,0.00311492,-0.
 00530740,-0.00044296,-0.00061285,0.00048303,0.,0.,-0.00031293,0.000697
 50,-0.00060396,0.00022902,0.00037413,0.00005463,-0.00002923,-0.0006975
 1,0.00060398,0.00022902,-0.00037415,-0.00005463,-0.00002922,-0.0000012
 2,0.00000053,0.07070359||0.00000385,0.00000313,0.,0.00000364,-0.000000
 79,0.00000075,0.00000364,-0.00000079,-0.00000075,-0.00000223,0.0000000
 4,-0.00000075,0.00000443,0.00000297,0.00000035,0.00000201,-0.00000143,
 0.00000108,-0.00000223,0.00000004,0.00000075,0.00000443,0.00000297,-0.
 00000035,0.00000201,-0.00000143,-0.00000108,-0.00000389,0.00000288,0.,
 -0.00000505,-0.00000240,-0.00000022,-0.00000299,0.00000246,0.00000110,
 -0.00000505,-0.00000240,0.00000022,-0.00000299,0.00000246,-0.00000110,
 0.00000043,-0.00000772,0.|||@
 Job cpu time:  0 days  0 hours  9 minutes 47.0 seconds.
 File lengths (MBytes):  RWF=   3167 Int=      0 D2E=      0 Chk=      5 Scr=      1
 Normal termination of Gaussian 09 at Fri Jul 26 11:03:28 2019.
