 Entering Link 1 = C:\G09W\l1.exe PID=      9112.
  
 Copyright (c) 1988,1990,1992,1993,1995,1998,2003,2009,2010,
            Gaussian, Inc.  All Rights Reserved.
  
 This is part of the Gaussian(R) 09 program.  It is based on
 the Gaussian(R) 03 system (copyright 2003, Gaussian, Inc.),
 the Gaussian(R) 98 system (copyright 1998, Gaussian, Inc.),
 the Gaussian(R) 94 system (copyright 1995, Gaussian, Inc.),
 the Gaussian 92(TM) system (copyright 1992, Gaussian, Inc.),
 the Gaussian 90(TM) system (copyright 1990, Gaussian, Inc.),
 the Gaussian 88(TM) system (copyright 1988, Gaussian, Inc.),
 the Gaussian 86(TM) system (copyright 1986, Carnegie Mellon
 University), and the Gaussian 82(TM) system (copyright 1983,
 Carnegie Mellon University). Gaussian is a federally registered
 trademark of Gaussian, Inc.
  
 This software contains proprietary and confidential information,
 including trade secrets, belonging to Gaussian, Inc.
  
 This software is provided under written license and may be
 used, copied, transmitted, or stored only in accord with that
 written license.
  
 The following legend is applicable only to US Government
 contracts under FAR:
  
                    RESTRICTED RIGHTS LEGEND
  
 Use, reproduction and disclosure by the US Government is
 subject to restrictions as set forth in subparagraphs (a)
 and (c) of the Commercial Computer Software - Restricted
 Rights clause in FAR 52.227-19.
  
 Gaussian, Inc.
 340 Quinnipiac St., Bldg. 40, Wallingford CT 06492
  
  
 ---------------------------------------------------------------
 Warning -- This program may not be used in any manner that
 competes with the business of Gaussian, Inc. or will provide
 assistance to any competitor of Gaussian, Inc.  The licensee
 of this program is prohibited from giving any competitor of
 Gaussian, Inc. access to this program.  By using this program,
 the user acknowledges that Gaussian, Inc. is engaged in the
 business of creating and licensing software in the field of
 computational chemistry and represents and warrants to the
 licensee that it is not a competitor of Gaussian, Inc. and that
 it will not use this program in any manner prohibited above.
 ---------------------------------------------------------------
  

 Cite this work as:
 Gaussian 09, Revision B.01,
 M. J. Frisch, G. W. Trucks, H. B. Schlegel, G. E. Scuseria, 
 M. A. Robb, J. R. Cheeseman, G. Scalmani, V. Barone, B. Mennucci, 
 G. A. Petersson, H. Nakatsuji, M. Caricato, X. Li, H. P. Hratchian, 
 A. F. Izmaylov, J. Bloino, G. Zheng, J. L. Sonnenberg, M. Hada, 
 M. Ehara, K. Toyota, R. Fukuda, J. Hasegawa, M. Ishida, T. Nakajima, 
 Y. Honda, O. Kitao, H. Nakai, T. Vreven, J. A. Montgomery, Jr., 
 J. E. Peralta, F. Ogliaro, M. Bearpark, J. J. Heyd, E. Brothers, 
 K. N. Kudin, V. N. Staroverov, T. Keith, R. Kobayashi, J. Normand, 
 K. Raghavachari, A. Rendell, J. C. Burant, S. S. Iyengar, J. Tomasi, 
 M. Cossi, N. Rega, J. M. Millam, M. Klene, J. E. Knox, J. B. Cross, 
 V. Bakken, C. Adamo, J. Jaramillo, R. Gomperts, R. E. Stratmann, 
 O. Yazyev, A. J. Austin, R. Cammi, C. Pomelli, J. W. Ochterski, 
 R. L. Martin, K. Morokuma, V. G. Zakrzewski, G. A. Voth, 
 P. Salvador, J. J. Dannenberg, S. Dapprich, A. D. Daniels, 
 O. Farkas, J. B. Foresman, J. V. Ortiz, J. Cioslowski, 
 and D. J. Fox, Gaussian, Inc., Wallingford CT, 2010.
 
 ******************************************
 Gaussian 09:  IA32W-G09RevB.01 12-Aug-2010
                23-Jul-2019 
 ******************************************
 %mem=1500MB
 %chk=C:\GaussianCalcs\MP-BH3\Thermo\MPBH3-HF-631Gd.chk
 -------------------------------------------------------------------
 #P CBS-QB3 Geom = Checkpoint Guess = Read Opt = Readfc Freq=noraman
 -------------------------------------------------------------------
 1/10=3,14=-1,18=20,19=15,26=3,29=2,38=1/1,3;
 2/9=110,12=2,40=1/2;
 3/5=4,6=6,7=700,11=2,14=-4,16=1,25=1,30=1,71=1,74=-5,116=-2/1,2,3;
 4/5=1/1;
 5/5=2,38=6/2;
 6/7=2,8=2,9=2,10=2,28=1/1;
 7//1,2,3,16;
 1/14=-1,18=20,19=15/3(2);
 2/9=110/2;
 99//99;
 2/9=110/2;
 3/5=4,6=6,7=700,11=2,14=-2,16=1,25=1,30=1,71=1,74=-5/1,2,3;
 4/5=5,16=3/1;
 5/5=2,38=5/2;
 7//1,2,3,16;
 1/14=-1,18=20,19=15/3(-5);
 2/9=110/2;
 6/7=2,8=2,9=2,10=2,19=2,28=1/1;
 99/9=1/99;
 Leave Link    1 at Tue Jul 23 21:50:41 2019, MaxMem=  196608000 cpu:       0.0
 (Enter C:\G09W\l101.exe)
 -----
 MPBH3
 -----
 Redundant internal coordinates taken from checkpoint file:
 C:\GaussianCalcs\MP-BH3\Thermo\MPBH3-HF-631Gd.chk
 Charge =  0 Multiplicity = 1
 N,0,0.5254453399,0.8889542686,0.
 C,0,-0.1039098349,0.308357306,1.2226734502
 C,0,-0.1039098349,0.308357306,-1.2226734502
 B,0,0.5213135975,2.5376101366,0.
 C,0,-0.1067915327,-1.2173874304,-1.1720442983
 H,0,-1.1239615557,0.6998956556,-1.260144758
 H,0,0.4415580563,0.6888592498,-2.0901644426
 C,0,-0.1067915327,-1.2173874304,1.1720442983
 H,0,-1.1239615557,0.6998956556,1.260144758
 H,0,0.4415580563,0.6888592498,2.0901644426
 O,0,-0.7485866748,-1.6975383076,0.
 H,0,0.9280975246,-1.6021601002,-1.2221232746
 H,0,-0.6599837428,-1.6252622828,-2.0228777052
 H,0,0.9280975246,-1.6021601002,1.2221232746
 H,0,-0.6599837428,-1.6252622828,2.0228777052
 H,0,-0.6492042607,2.8574248385,0.
 H,0,1.1102958141,2.849145653,-1.0145550529
 H,0,1.1102958141,2.849145653,1.0145550529
 H,0,1.512149545,0.6168949638,0.
 Recover connectivity data from disk.
                    Isotopes and Nuclear Properties:
 (Nuclear quadrupole moments (NQMom) in fm**2, nuclear magnetic moments (NMagM)
  in nuclear magnetons)

  Atom         1           2           3           4           5           6           7           8           9          10
 IAtWgt=          14          12          12          11          12           1           1          12           1           1
 AtmWgt=  14.0030740  12.0000000  12.0000000  11.0093053  12.0000000   1.0078250   1.0078250  12.0000000   1.0078250   1.0078250
 NucSpn=           2           0           0           3           0           1           1           0           1           1
 AtZEff=  -4.5500000  -3.6000000  -3.6000000  -2.7500000  -3.6000000  -1.0000000  -1.0000000  -3.6000000  -1.0000000  -1.0000000
 NQMom=    2.0440000   0.0000000   0.0000000   4.0590000   0.0000000   0.0000000   0.0000000   0.0000000   0.0000000   0.0000000
 NMagM=    0.4037610   0.0000000   0.0000000   2.6886370   0.0000000   2.7928460   2.7928460   0.0000000   2.7928460   2.7928460

  Atom        11          12          13          14          15          16          17          18          19
 IAtWgt=          16           1           1           1           1           1           1           1           1
 AtmWgt=  15.9949146   1.0078250   1.0078250   1.0078250   1.0078250   1.0078250   1.0078250   1.0078250   1.0078250
 NucSpn=           0           1           1           1           1           1           1           1           1
 AtZEff=  -5.6000000  -1.0000000  -1.0000000  -1.0000000  -1.0000000  -1.0000000  -1.0000000  -1.0000000  -1.0000000
 NQMom=    0.0000000   0.0000000   0.0000000   0.0000000   0.0000000   0.0000000   0.0000000   0.0000000   0.0000000
 NMagM=    0.0000000   2.7928460   2.7928460   2.7928460   2.7928460   2.7928460   2.7928460   2.7928460   2.7928460
 Leave Link  101 at Tue Jul 23 21:50:41 2019, MaxMem=  196608000 cpu:       0.0
 (Enter C:\G09W\l103.exe)

 GradGradGradGradGradGradGradGradGradGradGradGradGradGradGradGradGradGrad
 Berny optimization.
 Initialization pass.
 Force constant matrix read from checkpoint file:
 C:\GaussianCalcs\MP-BH3\Thermo\MPBH3-HF-631Gd.chk
 NVar current= 107 chk= 107 common= 107.
                           ----------------------------
                           !    Initial Parameters    !
                           ! (Angstroms and Degrees)  !
 --------------------------                            --------------------------
 ! Name  Definition              Value          Derivative Info.                !
 --------------------------------------------------------------------------------
 ! R1    R(1,2)                  1.4927         D2E/DX2 =    0.26               !
 ! R2    R(1,3)                  1.4927         D2E/DX2 =    0.26               !
 ! R3    R(1,4)                  1.6487         D2E/DX2 =    0.1398             !
 ! R4    R(1,19)                 1.0235         D2E/DX2 =    0.4224             !
 ! R5    R(2,8)                  1.5266         D2E/DX2 =    0.2412             !
 ! R6    R(2,9)                  1.0933         D2E/DX2 =    0.3462             !
 ! R7    R(2,10)                 1.0931         D2E/DX2 =    0.3463             !
 ! R8    R(3,5)                  1.5266         D2E/DX2 =    0.2412             !
 ! R9    R(3,6)                  1.0933         D2E/DX2 =    0.3462             !
 ! R10   R(3,7)                  1.0931         D2E/DX2 =    0.3463             !
 ! R11   R(4,16)                 1.2134         D2E/DX2 =    0.2206             !
 ! R12   R(4,17)                 1.2138         D2E/DX2 =    0.2201             !
 ! R13   R(4,18)                 1.2138         D2E/DX2 =    0.2201             !
 ! R14   R(5,11)                 1.4199         D2E/DX2 =    0.2941             !
 ! R15   R(5,12)                 1.1052         D2E/DX2 =    0.3138             !
 ! R16   R(5,13)                 1.0938         D2E/DX2 =    0.3437             !
 ! R17   R(8,11)                 1.4199         D2E/DX2 =    0.2941             !
 ! R18   R(8,14)                 1.1052         D2E/DX2 =    0.3138             !
 ! R19   R(8,15)                 1.0938         D2E/DX2 =    0.3437             !
 ! A1    A(2,1,3)              109.9915         D2E/DX2 =    0.0417             !
 ! A2    A(2,1,4)              112.8241         D2E/DX2 =    0.0444             !
 ! A3    A(2,1,19)             107.6421         D2E/DX2 =    0.0176             !
 ! A4    A(3,1,4)              112.8241         D2E/DX2 =    0.0444             !
 ! A5    A(3,1,19)             107.6421         D2E/DX2 =    0.0176             !
 ! A6    A(4,1,19)             105.5585         D2E/DX2 =    0.0138             !
 ! A7    A(1,2,8)              111.2462         D2E/DX2 =    0.0625             !
 ! A8    A(1,2,9)              106.3895         D2E/DX2 =    0.0421             !
 ! A9    A(1,2,10)             107.7137         D2E/DX2 =    0.0418             !
 ! A10   A(8,2,9)              110.9355         D2E/DX2 =    0.0324             !
 ! A11   A(8,2,10)             112.0346         D2E/DX2 =    0.0386             !
 ! A12   A(9,2,10)             108.2842         D2E/DX2 =    0.0155             !
 ! A13   A(1,3,5)              111.2462         D2E/DX2 =    0.0625             !
 ! A14   A(1,3,6)              106.3895         D2E/DX2 =    0.0421             !
 ! A15   A(1,3,7)              107.7137         D2E/DX2 =    0.0418             !
 ! A16   A(5,3,6)              110.9355         D2E/DX2 =    0.0324             !
 ! A17   A(5,3,7)              112.0346         D2E/DX2 =    0.0386             !
 ! A18   A(6,3,7)              108.2842         D2E/DX2 =    0.0155             !
 ! A19   A(1,4,16)             105.4252         D2E/DX2 =    0.1189             !
 ! A20   A(1,4,17)             104.8001         D2E/DX2 =    0.118              !
 ! A21   A(1,4,18)             104.8001         D2E/DX2 =    0.118              !
 ! A22   A(16,4,17)            113.6056         D2E/DX2 =    0.0401             !
 ! A23   A(16,4,18)            113.6056         D2E/DX2 =    0.0401             !
 ! A24   A(17,4,18)            113.411          D2E/DX2 =    0.0397             !
 ! A25   A(3,5,11)             111.4814         D2E/DX2 =    0.0656             !
 ! A26   A(3,5,12)             110.1618         D2E/DX2 =    0.0611             !
 ! A27   A(3,5,13)             110.3566         D2E/DX2 =    0.0628             !
 ! A28   A(11,5,12)            110.0539         D2E/DX2 =    0.0455             !
 ! A29   A(11,5,13)            106.7022         D2E/DX2 =    0.0507             !
 ! A30   A(12,5,13)            107.9694         D2E/DX2 =    0.0276             !
 ! A31   A(2,8,11)             111.4814         D2E/DX2 =    0.0656             !
 ! A32   A(2,8,14)             110.1618         D2E/DX2 =    0.0611             !
 ! A33   A(2,8,15)             110.3566         D2E/DX2 =    0.0628             !
 ! A34   A(11,8,14)            110.0539         D2E/DX2 =    0.0455             !
 ! A35   A(11,8,15)            106.7022         D2E/DX2 =    0.0507             !
 ! A36   A(14,8,15)            107.9694         D2E/DX2 =    0.0276             !
 ! A37   A(5,11,8)             111.2658         D2E/DX2 =    0.0669             !
 ! D1    D(3,1,2,8)             51.8871         D2E/DX2 =    0.0164             !
 ! D2    D(3,1,2,9)            -69.0412         D2E/DX2 =    0.0163             !
 ! D3    D(3,1,2,10)           175.0311         D2E/DX2 =    0.0153             !
 ! D4    D(4,1,2,8)            178.8252         D2E/DX2 =    0.0161             !
 ! D5    D(4,1,2,9)             57.8968         D2E/DX2 =    0.0138             !
 ! D6    D(4,1,2,10)           -58.0309         D2E/DX2 =    0.0134             !
 ! D7    D(19,1,2,8)           -65.1211         D2E/DX2 =    0.0133             !
 ! D8    D(19,1,2,9)           173.9505         D2E/DX2 =    0.0128             !
 ! D9    D(19,1,2,10)           58.0228         D2E/DX2 =    0.012              !
 ! D10   D(2,1,3,5)            -51.8871         D2E/DX2 =    0.0164             !
 ! D11   D(2,1,3,6)             69.0412         D2E/DX2 =    0.0163             !
 ! D12   D(2,1,3,7)           -175.0311         D2E/DX2 =    0.0153             !
 ! D13   D(4,1,3,5)           -178.8252         D2E/DX2 =    0.0161             !
 ! D14   D(4,1,3,6)            -57.8968         D2E/DX2 =    0.0138             !
 ! D15   D(4,1,3,7)             58.0309         D2E/DX2 =    0.0134             !
 ! D16   D(19,1,3,5)            65.1211         D2E/DX2 =    0.0133             !
 ! D17   D(19,1,3,6)          -173.9505         D2E/DX2 =    0.0128             !
 ! D18   D(19,1,3,7)           -58.0228         D2E/DX2 =    0.012              !
 ! D19   D(2,1,4,16)           -62.7096         D2E/DX2 =    0.0118             !
 ! D20   D(2,1,4,17)           177.1209         D2E/DX2 =    0.0118             !
 ! D21   D(2,1,4,18)            57.4598         D2E/DX2 =    0.0116             !
 ! D22   D(3,1,4,16)            62.7096         D2E/DX2 =    0.0118             !
 ! D23   D(3,1,4,17)           -57.4598         D2E/DX2 =    0.0116             !
 ! D24   D(3,1,4,18)          -177.1209         D2E/DX2 =    0.0118             !
 ! D25   D(19,1,4,16)          180.0            D2E/DX2 =    0.0105             !
 ! D26   D(19,1,4,17)           59.8306         D2E/DX2 =    0.0107             !
 ! D27   D(19,1,4,18)          -59.8306         D2E/DX2 =    0.0107             !
 ! D28   D(1,2,8,11)           -55.8612         D2E/DX2 =    0.0198             !
 ! D29   D(1,2,8,14)            66.6219         D2E/DX2 =    0.0184             !
 ! D30   D(1,2,8,15)          -174.2493         D2E/DX2 =    0.018              !
 ! D31   D(9,2,8,11)            62.3606         D2E/DX2 =    0.0221             !
 ! D32   D(9,2,8,14)          -175.1562         D2E/DX2 =    0.0189             !
 ! D33   D(9,2,8,15)           -56.0274         D2E/DX2 =    0.0172             !
 ! D34   D(10,2,8,11)         -176.4939         D2E/DX2 =    0.0195             !
 ! D35   D(10,2,8,14)          -54.0107         D2E/DX2 =    0.0178             !
 ! D36   D(10,2,8,15)           65.118          D2E/DX2 =    0.0165             !
 ! D37   D(1,3,5,11)            55.8612         D2E/DX2 =    0.0198             !
 ! D38   D(1,3,5,12)           -66.6219         D2E/DX2 =    0.0184             !
 ! D39   D(1,3,5,13)           174.2493         D2E/DX2 =    0.018              !
 ! D40   D(6,3,5,11)           -62.3606         D2E/DX2 =    0.0221             !
 ! D41   D(6,3,5,12)           175.1562         D2E/DX2 =    0.0189             !
 ! D42   D(6,3,5,13)            56.0274         D2E/DX2 =    0.0172             !
 ! D43   D(7,3,5,11)           176.4939         D2E/DX2 =    0.0195             !
 ! D44   D(7,3,5,12)            54.0107         D2E/DX2 =    0.0178             !
 ! D45   D(7,3,5,13)           -65.118          D2E/DX2 =    0.0165             !
 ! D46   D(3,5,11,8)           -59.1819         D2E/DX2 =    0.0236             !
 ! D47   D(12,5,11,8)           63.3633         D2E/DX2 =    0.0318             !
 ! D48   D(13,5,11,8)         -179.7377         D2E/DX2 =    0.0289             !
 ! D49   D(2,8,11,5)            59.1819         D2E/DX2 =    0.0236             !
 ! D50   D(14,8,11,5)          -63.3633         D2E/DX2 =    0.0318             !
 ! D51   D(15,8,11,5)          179.7377         D2E/DX2 =    0.0289             !
 --------------------------------------------------------------------------------
 Trust Radius=3.00D-01 FncErr=1.00D-07 GrdErr=1.00D-06
 Number of steps in this run=    114 maximum allowed number of steps=    114.
 GradGradGradGradGradGradGradGradGradGradGradGradGradGradGradGradGradGrad

 Leave Link  103 at Tue Jul 23 21:50:41 2019, MaxMem=  196608000 cpu:       0.0
 (Enter C:\G09W\l202.exe)
                          Input orientation:                          
 ---------------------------------------------------------------------
 Center     Atomic      Atomic             Coordinates (Angstroms)
 Number     Number       Type             X           Y           Z
 ---------------------------------------------------------------------
      1          7           0        0.525445    0.888954    0.000000
      2          6           0       -0.103910    0.308357    1.222673
      3          6           0       -0.103910    0.308357   -1.222673
      4          5           0        0.521314    2.537610    0.000000
      5          6           0       -0.106792   -1.217387   -1.172044
      6          1           0       -1.123962    0.699896   -1.260145
      7          1           0        0.441558    0.688859   -2.090164
      8          6           0       -0.106792   -1.217387    1.172044
      9          1           0       -1.123962    0.699896    1.260145
     10          1           0        0.441558    0.688859    2.090164
     11          8           0       -0.748587   -1.697538    0.000000
     12          1           0        0.928098   -1.602160   -1.222123
     13          1           0       -0.659984   -1.625262   -2.022878
     14          1           0        0.928098   -1.602160    1.222123
     15          1           0       -0.659984   -1.625262    2.022878
     16          1           0       -0.649204    2.857425    0.000000
     17          1           0        1.110296    2.849146   -1.014555
     18          1           0        1.110296    2.849146    1.014555
     19          1           0        1.512150    0.616895    0.000000
 ---------------------------------------------------------------------
                    Distance matrix (angstroms):
                    1          2          3          4          5
     1  N    0.000000
     2  C    1.492686   0.000000
     3  C    1.492686   2.445347   0.000000
     4  B    1.648661   2.618282   2.618282   0.000000
     5  C    2.492005   2.839468   1.526587   3.983492   0.000000
     6  H    2.084287   2.712599   1.093257   2.769854   2.172181
     7  H    2.101395   3.378936   1.093095   2.791600   2.185728
     8  C    2.492005   1.526587   2.839468   3.983492   2.344089
     9  H    2.084287   1.093257   2.712599   2.769854   3.259778
    10  H    2.101395   1.093095   3.378936   2.791600   3.817914
    11  O    2.883245   2.436012   2.436012   4.421440   1.419906
    12  H    2.803813   3.269885   2.171432   4.335523   1.105239
    13  H    3.437813   3.818600   2.165278   4.776715   1.093755
    14  H    2.803813   2.171432   3.269885   4.335523   2.636491
    15  H    3.437813   2.165278   3.818600   4.776715   3.268013
    16  H    2.292308   2.879240   2.879240   1.213422   4.274575
    17  H    2.283358   3.596539   2.823688   1.213786   4.247681
    18  H    2.283358   2.823688   3.596539   1.213786   4.774852
    19  H    1.023524   2.049823   2.049823   2.161227   2.712794
                    6          7          8          9         10
     6  H    0.000000
     7  H    1.771978   0.000000
     8  C    3.259778   3.817914   0.000000
     9  H    2.520290   3.698046   2.172181   0.000000
    10  H    3.698046   4.180329   2.185728   1.771978   0.000000
    11  O    2.734330   3.388233   1.419906   2.734330   3.388233
    12  H    3.084129   2.497796   2.636491   3.958795   4.056691
    13  H    2.490662   2.563802   3.268013   4.049675   4.846201
    14  H    3.958795   4.056691   1.105239   3.084129   2.497796
    15  H    4.049675   4.846201   1.093755   2.490662   2.563802
    16  H    2.543284   3.203315   4.274575   2.543284   3.203315
    17  H    3.109903   2.504193   4.774852   3.845184   3.841006
    18  H    3.845184   3.841006   4.247681   3.109903   2.504193
    19  H    2.923001   2.349496   2.712794   2.923001   2.349496
                   11         12         13         14         15
    11  O    0.000000
    12  H    2.077006   0.000000
    13  H    2.026107   1.778692   0.000000
    14  H    2.077006   2.444247   3.612834   0.000000
    15  H    2.026107   3.612834   4.045755   1.778692   0.000000
    16  H    4.556047   4.885628   4.917991   4.885628   4.917991
    17  H    5.015686   4.459866   4.916394   4.984982   5.690361
    18  H    5.015686   4.984982   5.690361   4.459866   4.916394
    19  H    3.235356   2.599790   3.719875   2.599790   3.719875
                   16         17         18         19
    16  H    0.000000
    17  H    2.031066   0.000000
    18  H    2.031066   2.029110   0.000000
    19  H    3.113105   2.484704   2.484704   0.000000
 Stoichiometry    C4H12BNO
 Framework group  CS[SG(H2BNO),X(C4H10)]
 Deg. of freedom    28
 Full point group                 CS      NOp   2
 Largest Abelian subgroup         CS      NOp   2
 Largest concise Abelian subgroup CS      NOp   2
                         Standard orientation:                         
 ---------------------------------------------------------------------
 Center     Atomic      Atomic             Coordinates (Angstroms)
 Number     Number       Type             X           Y           Z
 ---------------------------------------------------------------------
      1          7           0        0.523360    0.891420    0.000000
      2          6           0       -0.104897    0.309636    1.222673
      3          6           0       -0.104897    0.309636   -1.222673
      4          5           0        0.516115    2.540066    0.000000
      5          6           0       -0.104897   -1.216112   -1.172044
      6          1           0       -1.125687    0.699247   -1.260145
      7          1           0        0.439851    0.691167   -2.090164
      8          6           0       -0.104897   -1.216112    1.172044
      9          1           0       -1.125687    0.699247    1.260145
     10          1           0        0.439851    0.691167    2.090164
     11          8           0       -0.745784   -1.697474    0.000000
     12          1           0        0.930717   -1.598929   -1.222123
     13          1           0       -0.657318   -1.625031   -2.022878
     14          1           0        0.930717   -1.598929    1.222123
     15          1           0       -0.657318   -1.625031    2.022878
     16          1           0       -0.655005    2.857669    0.000000
     17          1           0        1.104507    2.852713   -1.014555
     18          1           0        1.104507    2.852713    1.014555
     19          1           0        1.510577    0.621225    0.000000
 ---------------------------------------------------------------------
 Rotational constants (GHZ):      4.6216880      2.1942306      1.6337002
 Leave Link  202 at Tue Jul 23 21:50:41 2019, MaxMem=  196608000 cpu:       0.0
 (Enter C:\G09W\l301.exe)
 Standard basis: 6-311G(2d,d,p) (5D, 7F)
 Ernie: Thresh=  0.10000D-02 Tol=  0.10000D-05 Strict=F.
 There are   115 symmetry adapted basis functions of A'  symmetry.
 There are    83 symmetry adapted basis functions of A"  symmetry.
 Integral buffers will be    262144 words long.
 Raffenetti 2 integral format.
 Two-electron integral symmetry is turned on.
   198 basis functions,   320 primitive gaussians,   205 cartesian basis functions
    28 alpha electrons       28 beta electrons
       nuclear repulsion energy       334.8759161845 Hartrees.
 IExCor=  402 DFT=T Ex+Corr=B3LYP ExCW=0 ScaHFX=  0.200000
 ScaDFX=  0.800000  0.720000  1.000000  0.810000 ScalE2=  1.000000  1.000000
 IRadAn=      0 IRanWt=     -1 IRanGd=            0 ICorTp=0
 NAtoms=   19 NActive=   19 NUniq=   12 SFac= 2.51D+00 NAtFMM=   50 NAOKFM=F Big=F
 Leave Link  301 at Tue Jul 23 21:50:41 2019, MaxMem=  196608000 cpu:       0.0
 (Enter C:\G09W\l302.exe)
 NPDir=0 NMtPBC=     1 NCelOv=     1 NCel=       1 NClECP=     1 NCelD=      1
         NCelK=      1 NCelE2=     1 NClLst=     1 CellRange=     0.0.
 One-electron integrals computed using PRISM.
 One-electron integral symmetry used in STVInt
 NBasis=   198 RedAO= T  NBF=   115    83
 NBsUse=   198 1.00D-06 NBFU=   115    83
 Precomputing XC quadrature grid using
 IXCGrd= 2 IRadAn=           0 IRanWt=          -1 IRanGd=           0 AccXCQ= 0.00D+00.
 NRdTot=    1196 NPtTot=      151710 NUsed=      157295 NTot=      157311
 NSgBfM=   205   205   205   205   205 NAtAll=    19    19.
 Leave Link  302 at Tue Jul 23 21:50:42 2019, MaxMem=  196608000 cpu:       1.0
 (Enter C:\G09W\l303.exe)
 DipDrv:  MaxL=1.
 Leave Link  303 at Tue Jul 23 21:50:42 2019, MaxMem=  196608000 cpu:       0.0
 (Enter C:\G09W\l401.exe)
 Initial guess read from the checkpoint file:  C:\GaussianCalcs\MP-BH3\Thermo\MPBH3-HF-631Gd.chk
 B after Tr=     0.000000    0.000000    0.000000
         Rot=    1.000000    0.000000    0.000000    0.000000 Ang=   0.00 deg.
 Guess basis will be translated and rotated to current coordinates.
 Initial guess orbital symmetries:
       Occupied  (A') (A') (A") (A') (A") (A') (A') (A') (A') (A")
                 (A') (A") (A') (A') (A') (A") (A') (A") (A') (A")
                 (A') (A") (A") (A') (A') (A') (A") (A')
       Virtual   (A') (A') (A') (A') (A') (A') (A') (A') (A') (A')
                 (A') (A') (A') (A') (A') (A') (A') (A') (A') (A')
                 (A') (A') (A') (A') (A') (A') (A') (A') (A') (A')
                 (A') (A') (A') (A') (A') (A') (A') (A') (A') (A')
                 (A') (A') (A') (A') (A') (A') (A') (A') (A') (A')
                 (A') (A') (A') (A') (A') (A') (A') (A') (A') (A')
                 (A') (A') (A') (A') (A') (A') (A') (A') (A') (A')
                 (A') (A') (A') (A') (A') (A') (A') (A') (A') (A')
                 (A') (A') (A') (A') (A') (A') (A') (A') (A') (A')
                 (A') (A') (A') (A') (A') (A') (A') (A") (A") (A")
                 (A") (A") (A") (A") (A") (A") (A") (A") (A") (A")
                 (A") (A") (A") (A") (A") (A") (A") (A") (A") (A")
                 (A") (A") (A") (A") (A") (A") (A") (A") (A") (A")
                 (A") (A") (A") (A") (A") (A") (A") (A") (A") (A")
                 (A") (A") (A") (A") (A") (A") (A") (A") (A") (A")
                 (A") (A") (A") (A") (A") (A") (A") (A") (A") (A")
                 (A") (A") (A") (A") (A") (A") (A") (A") (A") (A")
 The electronic state of the initial guess is 1-A'.
 Leave Link  401 at Tue Jul 23 21:50:42 2019, MaxMem=  196608000 cpu:       0.0
 (Enter C:\G09W\l502.exe)
 Closed shell SCF:
 Requested convergence on RMS density matrix=1.00D-08 within 128 cycles.
 Requested convergence on MAX density matrix=1.00D-06.
 Requested convergence on             energy=1.00D-06.
 No special actions if energy rises.
 Using DIIS extrapolation, IDIIS=  1040.
 Integral symmetry usage will be decided dynamically.
       157130 words used for storage of precomputed grid.
 IEnd=      303998 IEndB=      303998 NGot=   196608000 MDV=   196362873
 LenX=   196362873 LenY=   196320407
 Fock matrices will be formed incrementally for  20 cycles.

 Cycle   1  Pass 1  IDiag  1:
 FoFCou: FMM=F IPFlag=           0 FMFlag=      100000 FMFlg1=           0
         NFxFlg=           0 DoJE=F BraDBF=F KetDBF=F FulRan=T
         Omega=  0.000000  0.000000  1.000000  0.000000  0.000000 ICntrl=       0 IOpCl=  0
         NMat0=    1 NMatS0=    1 NMatT0=    0 NMatD0=    1 NMtDS0=    0 NMtDT0=    0
         I1Cent=           0 NGrid=           0.
 Petite list used in FoFCou.
 E= -314.505245933681    
 DIIS: error= 1.69D-02 at cycle   1 NSaved=   1.
 NSaved= 1 IEnMin= 1 EnMin= -314.505245933681     IErMin= 1 ErrMin= 1.69D-02
 ErrMax= 1.69D-02 EMaxC= 1.00D-01 BMatC= 1.24D-01 BMatP= 1.24D-01
 IDIUse=3 WtCom= 8.31D-01 WtEn= 1.69D-01
 Coeff-Com:  0.100D+01
 Coeff-En:   0.100D+01
 Coeff:      0.100D+01
 Gap=     0.618 Goal=   None    Shift=    0.000
 GapD=    0.618 DampG=2.000 DampE=0.500 DampFc=1.0000 IDamp=-1.
 RMSDP=1.76D-03 MaxDP=5.98D-02              OVMax= 3.52D-02

 Cycle   2  Pass 1  IDiag  1:
 RMSU=  1.22D-03    CP:  9.74D-01
 E= -314.550682027031     Delta-E=       -0.045436093350 Rises=F Damp=F
 DIIS: error= 1.39D-03 at cycle   2 NSaved=   2.
 NSaved= 2 IEnMin= 2 EnMin= -314.550682027031     IErMin= 2 ErrMin= 1.39D-03
 ErrMax= 1.39D-03 EMaxC= 1.00D-01 BMatC= 5.78D-04 BMatP= 1.24D-01
 IDIUse=3 WtCom= 9.86D-01 WtEn= 1.39D-02
 Coeff-Com:  0.102D-01 0.990D+00
 Coeff-En:   0.000D+00 0.100D+01
 Coeff:      0.100D-01 0.990D+00
 Gap=     0.290 Goal=   None    Shift=    0.000
 RMSDP=1.32D-04 MaxDP=4.27D-03 DE=-4.54D-02 OVMax= 4.45D-03

 Cycle   3  Pass 1  IDiag  1:
 RMSU=  8.66D-05    CP:  9.73D-01  1.03D+00
 E= -314.550780926240     Delta-E=       -0.000098899209 Rises=F Damp=F
 DIIS: error= 1.67D-03 at cycle   3 NSaved=   3.
 NSaved= 3 IEnMin= 3 EnMin= -314.550780926240     IErMin= 2 ErrMin= 1.39D-03
 ErrMax= 1.67D-03 EMaxC= 1.00D-01 BMatC= 2.56D-04 BMatP= 5.78D-04
 IDIUse=3 WtCom= 9.83D-01 WtEn= 1.67D-02
 Coeff-Com: -0.162D-02 0.377D+00 0.625D+00
 Coeff-En:   0.000D+00 0.334D+00 0.666D+00
 Coeff:     -0.159D-02 0.376D+00 0.626D+00
 Gap=     0.290 Goal=   None    Shift=    0.000
 RMSDP=8.65D-05 MaxDP=3.54D-03 DE=-9.89D-05 OVMax= 4.30D-03

 Cycle   4  Pass 1  IDiag  1:
 RMSU=  4.41D-05    CP:  9.72D-01  1.02D+00  5.17D-01
 E= -314.550879183312     Delta-E=       -0.000098257073 Rises=F Damp=F
 DIIS: error= 1.13D-03 at cycle   4 NSaved=   4.
 NSaved= 4 IEnMin= 4 EnMin= -314.550879183312     IErMin= 4 ErrMin= 1.13D-03
 ErrMax= 1.13D-03 EMaxC= 1.00D-01 BMatC= 1.00D-04 BMatP= 2.56D-04
 IDIUse=3 WtCom= 9.89D-01 WtEn= 1.13D-02
 Coeff-Com: -0.165D-02 0.796D-01 0.394D+00 0.528D+00
 Coeff-En:   0.000D+00 0.000D+00 0.313D+00 0.687D+00
 Coeff:     -0.163D-02 0.787D-01 0.394D+00 0.529D+00
 Gap=     0.289 Goal=   None    Shift=    0.000
 RMSDP=3.76D-05 MaxDP=1.32D-03 DE=-9.83D-05 OVMax= 1.80D-03

 Cycle   5  Pass 1  IDiag  1:
 RMSU=  1.03D-05    CP:  9.72D-01  1.03D+00  6.58D-01  5.28D-01
 E= -314.550945771164     Delta-E=       -0.000066587851 Rises=F Damp=F
 DIIS: error= 7.44D-05 at cycle   5 NSaved=   5.
 NSaved= 5 IEnMin= 5 EnMin= -314.550945771164     IErMin= 5 ErrMin= 7.44D-05
 ErrMax= 7.44D-05 EMaxC= 1.00D-01 BMatC= 1.23D-06 BMatP= 1.00D-04
 IDIUse=1 WtCom= 1.00D+00 WtEn= 0.00D+00
 Coeff-Com: -0.545D-03 0.150D-01 0.129D+00 0.213D+00 0.644D+00
 Coeff:     -0.545D-03 0.150D-01 0.129D+00 0.213D+00 0.644D+00
 Gap=     0.289 Goal=   None    Shift=    0.000
 RMSDP=5.95D-06 MaxDP=1.41D-04 DE=-6.66D-05 OVMax= 2.56D-04

 Cycle   6  Pass 1  IDiag  1:
 RMSU=  1.93D-06    CP:  9.72D-01  1.03D+00  6.66D-01  5.64D-01  6.81D-01
 E= -314.550946938690     Delta-E=       -0.000001167526 Rises=F Damp=F
 DIIS: error= 1.22D-05 at cycle   6 NSaved=   6.
 NSaved= 6 IEnMin= 6 EnMin= -314.550946938690     IErMin= 6 ErrMin= 1.22D-05
 ErrMax= 1.22D-05 EMaxC= 1.00D-01 BMatC= 2.68D-08 BMatP= 1.23D-06
 IDIUse=1 WtCom= 1.00D+00 WtEn= 0.00D+00
 Coeff-Com: -0.146D-03 0.268D-02 0.295D-01 0.523D-01 0.208D+00 0.708D+00
 Coeff:     -0.146D-03 0.268D-02 0.295D-01 0.523D-01 0.208D+00 0.708D+00
 Gap=     0.289 Goal=   None    Shift=    0.000
 RMSDP=1.10D-06 MaxDP=3.97D-05 DE=-1.17D-06 OVMax= 5.39D-05

 Cycle   7  Pass 1  IDiag  1:
 RMSU=  4.40D-07    CP:  9.72D-01  1.03D+00  6.67D-01  5.64D-01  7.21D-01
                    CP:  7.46D-01
 E= -314.550946964125     Delta-E=       -0.000000025435 Rises=F Damp=F
 DIIS: error= 6.63D-06 at cycle   7 NSaved=   7.
 NSaved= 7 IEnMin= 7 EnMin= -314.550946964125     IErMin= 7 ErrMin= 6.63D-06
 ErrMax= 6.63D-06 EMaxC= 1.00D-01 BMatC= 5.95D-09 BMatP= 2.68D-08
 IDIUse=1 WtCom= 1.00D+00 WtEn= 0.00D+00
 Coeff-Com: -0.245D-04 0.883D-05 0.340D-02 0.749D-02 0.493D-01 0.347D+00
 Coeff-Com:  0.592D+00
 Coeff:     -0.245D-04 0.883D-05 0.340D-02 0.749D-02 0.493D-01 0.347D+00
 Coeff:      0.592D+00
 Gap=     0.289 Goal=   None    Shift=    0.000
 RMSDP=3.44D-07 MaxDP=1.54D-05 DE=-2.54D-08 OVMax= 1.59D-05

 Cycle   8  Pass 1  IDiag  1:
 RMSU=  1.35D-07    CP:  9.72D-01  1.03D+00  6.66D-01  5.64D-01  7.20D-01
                    CP:  8.11D-01  6.63D-01
 E= -314.550946968930     Delta-E=       -0.000000004805 Rises=F Damp=F
 DIIS: error= 2.29D-06 at cycle   8 NSaved=   8.
 NSaved= 8 IEnMin= 8 EnMin= -314.550946968930     IErMin= 8 ErrMin= 2.29D-06
 ErrMax= 2.29D-06 EMaxC= 1.00D-01 BMatC= 8.64D-10 BMatP= 5.95D-09
 IDIUse=1 WtCom= 1.00D+00 WtEn= 0.00D+00
 Coeff-Com: -0.459D-08-0.195D-03-0.100D-02-0.114D-02 0.553D-02 0.114D+00
 Coeff-Com:  0.327D+00 0.556D+00
 Coeff:     -0.459D-08-0.195D-03-0.100D-02-0.114D-02 0.553D-02 0.114D+00
 Coeff:      0.327D+00 0.556D+00
 Gap=     0.289 Goal=   None    Shift=    0.000
 RMSDP=9.30D-08 MaxDP=5.43D-06 DE=-4.80D-09 OVMax= 4.94D-06

 Cycle   9  Pass 1  IDiag  1:
 RMSU=  3.15D-08    CP:  9.72D-01  1.03D+00  6.66D-01  5.64D-01  7.21D-01
                    CP:  8.21D-01  6.99D-01  6.33D-01
 E= -314.550946969616     Delta-E=       -0.000000000686 Rises=F Damp=F
 DIIS: error= 2.98D-07 at cycle   9 NSaved=   9.
 NSaved= 9 IEnMin= 9 EnMin= -314.550946969616     IErMin= 9 ErrMin= 2.98D-07
 ErrMax= 2.98D-07 EMaxC= 1.00D-01 BMatC= 1.70D-11 BMatP= 8.64D-10
 IDIUse=1 WtCom= 1.00D+00 WtEn= 0.00D+00
 Coeff-Com:  0.175D-05-0.885D-04-0.631D-03-0.952D-03-0.480D-03 0.241D-01
 Coeff-Com:  0.934D-01 0.204D+00 0.681D+00
 Coeff:      0.175D-05-0.885D-04-0.631D-03-0.952D-03-0.480D-03 0.241D-01
 Coeff:      0.934D-01 0.204D+00 0.681D+00
 Gap=     0.289 Goal=   None    Shift=    0.000
 RMSDP=1.82D-08 MaxDP=1.02D-06 DE=-6.86D-10 OVMax= 1.18D-06

 Cycle  10  Pass 1  IDiag  1:
 RMSU=  8.95D-09    CP:  9.72D-01  1.03D+00  6.66D-01  5.64D-01  7.21D-01
                    CP:  8.21D-01  7.11D-01  6.40D-01  7.83D-01
 E= -314.550946969626     Delta-E=       -0.000000000010 Rises=F Damp=F
 DIIS: error= 7.16D-08 at cycle  10 NSaved=  10.
 NSaved=10 IEnMin=10 EnMin= -314.550946969626     IErMin=10 ErrMin= 7.16D-08
 ErrMax= 7.16D-08 EMaxC= 1.00D-01 BMatC= 1.45D-12 BMatP= 1.70D-11
 IDIUse=1 WtCom= 1.00D+00 WtEn= 0.00D+00
 Coeff-Com:  0.587D-06-0.220D-04-0.183D-03-0.304D-03-0.356D-03 0.397D-02
 Coeff-Com:  0.217D-01 0.566D-01 0.293D+00 0.626D+00
 Coeff:      0.587D-06-0.220D-04-0.183D-03-0.304D-03-0.356D-03 0.397D-02
 Coeff:      0.217D-01 0.566D-01 0.293D+00 0.626D+00
 Gap=     0.289 Goal=   None    Shift=    0.000
 RMSDP=6.82D-09 MaxDP=1.56D-07 DE=-9.78D-12 OVMax= 2.59D-07

 SCF Done:  E(RB3LYP) =  -314.550946970     A.U. after   10 cycles
             Convg  =    0.6824D-08             -V/T =  2.0044
 KE= 3.131606374081D+02 PE=-1.400853479918D+03 EE= 4.382659793554D+02
 Leave Link  502 at Tue Jul 23 21:52:07 2019, MaxMem=  196608000 cpu:      85.0
 (Enter C:\G09W\l601.exe)
 Copying SCF densities to generalized density rwf, IOpCl= 0 IROHF=0.

 **********************************************************************

            Population analysis using the SCF density.

 **********************************************************************

 Orbital symmetries:
       Occupied  (A') (A') (A") (A') (A") (A') (A') (A') (A') (A")
                 (A') (A") (A') (A') (A') (A") (A') (A") (A') (A")
                 (A') (A") (A") (A') (A') (A') (A") (A')
       Virtual   (A') (A') (A") (A') (A') (A") (A') (A') (A") (A")
                 (A') (A') (A") (A') (A") (A') (A") (A') (A") (A')
                 (A") (A') (A") (A') (A") (A') (A') (A") (A') (A")
                 (A') (A') (A') (A") (A") (A') (A") (A') (A") (A")
                 (A') (A') (A') (A') (A") (A') (A") (A') (A') (A")
                 (A') (A') (A') (A") (A") (A") (A') (A') (A") (A')
                 (A") (A') (A') (A") (A') (A") (A") (A') (A') (A")
                 (A") (A') (A") (A') (A") (A') (A') (A") (A") (A')
                 (A") (A') (A') (A') (A") (A') (A') (A") (A') (A")
                 (A") (A') (A") (A') (A") (A') (A') (A") (A') (A')
                 (A") (A') (A") (A") (A') (A') (A") (A') (A") (A')
                 (A') (A") (A') (A') (A') (A") (A") (A') (A") (A')
                 (A") (A') (A") (A") (A') (A') (A") (A') (A') (A")
                 (A") (A') (A') (A") (A') (A") (A') (A') (A") (A")
                 (A') (A") (A') (A') (A') (A") (A') (A") (A') (A")
                 (A') (A") (A') (A') (A") (A") (A') (A') (A') (A")
                 (A') (A') (A") (A') (A') (A') (A") (A") (A') (A')
 The electronic state is 1-A'.
 Alpha  occ. eigenvalues --  -19.14678 -14.38966 -10.24594 -10.24592 -10.22802
 Alpha  occ. eigenvalues --  -10.22800  -6.66865  -1.06910  -0.97134  -0.80567
 Alpha  occ. eigenvalues --   -0.72558  -0.68764  -0.62880  -0.55442  -0.52722
 Alpha  occ. eigenvalues --   -0.50980  -0.49548  -0.49152  -0.46770  -0.42936
 Alpha  occ. eigenvalues --   -0.40682  -0.39709  -0.38963  -0.36240  -0.32785
 Alpha  occ. eigenvalues --   -0.28656  -0.27802  -0.27690
 Alpha virt. eigenvalues --    0.01229   0.04590   0.04967   0.05469   0.07287
 Alpha virt. eigenvalues --    0.09308   0.09372   0.09754   0.10543   0.11413
 Alpha virt. eigenvalues --    0.14323   0.14842   0.15891   0.16111   0.17483
 Alpha virt. eigenvalues --    0.17977   0.20204   0.21248   0.22692   0.28733
 Alpha virt. eigenvalues --    0.28910   0.31999   0.32925   0.34875   0.36048
 Alpha virt. eigenvalues --    0.36298   0.39588   0.40555   0.41235   0.44761
 Alpha virt. eigenvalues --    0.46749   0.48674   0.49379   0.49921   0.52599
 Alpha virt. eigenvalues --    0.53965   0.54396   0.55963   0.56271   0.56855
 Alpha virt. eigenvalues --    0.56992   0.57462   0.59577   0.61440   0.62099
 Alpha virt. eigenvalues --    0.63206   0.64676   0.67920   0.68181   0.72783
 Alpha virt. eigenvalues --    0.78670   0.86146   0.87772   0.93245   0.97245
 Alpha virt. eigenvalues --    0.98967   1.00147   1.01977   1.10543   1.11196
 Alpha virt. eigenvalues --    1.13813   1.16142   1.17749   1.20682   1.23795
 Alpha virt. eigenvalues --    1.24146   1.30160   1.32499   1.34304   1.41094
 Alpha virt. eigenvalues --    1.43925   1.44035   1.46848   1.48479   1.49879
 Alpha virt. eigenvalues --    1.50509   1.51003   1.51048   1.52989   1.53606
 Alpha virt. eigenvalues --    1.56544   1.60005   1.61962   1.64019   1.64056
 Alpha virt. eigenvalues --    1.65225   1.68400   1.68706   1.70400   1.71828
 Alpha virt. eigenvalues --    1.73315   1.78199   1.78339   1.81351   1.85437
 Alpha virt. eigenvalues --    1.86531   1.89270   1.90523   1.96812   1.98177
 Alpha virt. eigenvalues --    1.98211   1.99514   2.04680   2.09500   2.11701
 Alpha virt. eigenvalues --    2.14235   2.15264   2.17312   2.17555   2.18113
 Alpha virt. eigenvalues --    2.20672   2.21733   2.25459   2.35108   2.37119
 Alpha virt. eigenvalues --    2.37459   2.39595   2.43529   2.44723   2.48093
 Alpha virt. eigenvalues --    2.48316   2.53283   2.54107   2.56494   2.57478
 Alpha virt. eigenvalues --    2.58648   2.59443   2.63082   2.69159   2.69672
 Alpha virt. eigenvalues --    2.73674   2.75983   2.80822   2.81672   2.86694
 Alpha virt. eigenvalues --    2.87554   2.89745   2.90637   2.90910   2.96454
 Alpha virt. eigenvalues --    3.01044   3.11433   3.12795   3.15396   3.20568
 Alpha virt. eigenvalues --    3.24873   3.33586   3.44284   3.57392   3.71790
 Alpha virt. eigenvalues --    3.74208   3.78531   3.79445   3.93158   4.01065
 Alpha virt. eigenvalues --    4.10384   4.20339   4.35772   4.68632   4.76579
 Alpha virt. eigenvalues --    4.96327   5.23258   5.64331  14.64048  23.75629
 Alpha virt. eigenvalues --   23.77607  23.83888  23.86415  35.46447  49.88491
          Condensed to atoms (all electrons):
              1          2          3          4          5          6
     1  N    6.487503   0.266741   0.266741   0.259680  -0.038777  -0.036613
     2  C    0.266741   5.036779  -0.053601  -0.048453  -0.022151  -0.005355
     3  C    0.266741  -0.053601   5.036779  -0.048453   0.335190   0.398852
     4  B    0.259680  -0.048453  -0.048453   3.674239   0.007987  -0.008321
     5  C   -0.038777  -0.022151   0.335190   0.007987   4.781437  -0.036837
     6  H   -0.036613  -0.005355   0.398852  -0.008321  -0.036837   0.524270
     7  H   -0.022685   0.007664   0.387396  -0.008906  -0.025893  -0.019946
     8  C   -0.038777   0.335190  -0.022151   0.007987  -0.073891  -0.000586
     9  H   -0.036613   0.398852  -0.005355  -0.008321  -0.000586   0.007539
    10  H   -0.022685   0.387396   0.007664  -0.008906  -0.000386  -0.000007
    11  O   -0.002812  -0.050138  -0.050138  -0.001666   0.295726   0.003465
    12  H   -0.008241  -0.001794  -0.062898  -0.001809   0.395495   0.009526
    13  H    0.004594  -0.000829  -0.027997  -0.000339   0.398213  -0.006225
    14  H   -0.008241  -0.062898  -0.001794  -0.001809  -0.010012   0.000943
    15  H    0.004594  -0.027997  -0.000829  -0.000339   0.007862  -0.000106
    16  H   -0.023401  -0.008389  -0.008389   0.428857   0.000526   0.006808
    17  H   -0.020460   0.006693  -0.008256   0.411931   0.000766  -0.001525
    18  H   -0.020460  -0.008256   0.006693   0.411931  -0.000654  -0.000076
    19  H    0.342103  -0.042552  -0.042552  -0.037640  -0.002252   0.009911
              7          8          9         10         11         12
     1  N   -0.022685  -0.038777  -0.036613  -0.022685  -0.002812  -0.008241
     2  C    0.007664   0.335190   0.398852   0.387396  -0.050138  -0.001794
     3  C    0.387396  -0.022151  -0.005355   0.007664  -0.050138  -0.062898
     4  B   -0.008906   0.007987  -0.008321  -0.008906  -0.001666  -0.001809
     5  C   -0.025893  -0.073891  -0.000586  -0.000386   0.295726   0.395495
     6  H   -0.019946  -0.000586   0.007539  -0.000007   0.003465   0.009526
     7  H    0.531910  -0.000386  -0.000007  -0.000080   0.003969  -0.001019
     8  C   -0.000386   4.781437  -0.036837  -0.025893   0.295726  -0.010012
     9  H   -0.000007  -0.036837   0.524270  -0.019946   0.003465   0.000943
    10  H   -0.000080  -0.025893  -0.019946   0.531910   0.003969   0.000185
    11  O    0.003969   0.295726   0.003465   0.003969   7.977369  -0.040128
    12  H   -0.001019  -0.010012   0.000943   0.000185  -0.040128   0.631652
    13  H    0.000022   0.007862  -0.000106   0.000086  -0.022148  -0.032147
    14  H    0.000185   0.395495   0.009526  -0.001019  -0.040128   0.015444
    15  H    0.000086   0.398213  -0.006225   0.000022  -0.022148  -0.000169
    16  H   -0.001645   0.000526   0.006808  -0.001645  -0.000057  -0.000045
    17  H    0.007578  -0.000654  -0.000076   0.000188   0.000008   0.000055
    18  H    0.000188   0.000766  -0.001525   0.007578   0.000008   0.000014
    19  H   -0.005759  -0.002252   0.009911  -0.005759   0.000060   0.007605
             13         14         15         16         17         18
     1  N    0.004594  -0.008241   0.004594  -0.023401  -0.020460  -0.020460
     2  C   -0.000829  -0.062898  -0.027997  -0.008389   0.006693  -0.008256
     3  C   -0.027997  -0.001794  -0.000829  -0.008389  -0.008256   0.006693
     4  B   -0.000339  -0.001809  -0.000339   0.428857   0.411931   0.411931
     5  C    0.398213  -0.010012   0.007862   0.000526   0.000766  -0.000654
     6  H   -0.006225   0.000943  -0.000106   0.006808  -0.001525  -0.000076
     7  H    0.000022   0.000185   0.000086  -0.001645   0.007578   0.000188
     8  C    0.007862   0.395495   0.398213   0.000526  -0.000654   0.000766
     9  H   -0.000106   0.009526  -0.006225   0.006808  -0.000076  -0.001525
    10  H    0.000086  -0.001019   0.000022  -0.001645   0.000188   0.007578
    11  O   -0.022148  -0.040128  -0.022148  -0.000057   0.000008   0.000008
    12  H   -0.032147   0.015444  -0.000169  -0.000045   0.000055   0.000014
    13  H    0.549531  -0.000169  -0.000423   0.000027  -0.000014   0.000022
    14  H   -0.000169   0.631652  -0.032147  -0.000045   0.000014   0.000055
    15  H   -0.000423  -0.032147   0.549531   0.000027   0.000022  -0.000014
    16  H    0.000027  -0.000045   0.000027   0.753459  -0.029967  -0.029967
    17  H   -0.000014   0.000014   0.000022  -0.029967   0.780032  -0.031931
    18  H    0.000022   0.000055  -0.000014  -0.029967  -0.031931   0.780032
    19  H    0.000017   0.007605   0.000017   0.006359  -0.004528  -0.004528
             19
     1  N    0.342103
     2  C   -0.042552
     3  C   -0.042552
     4  B   -0.037640
     5  C   -0.002252
     6  H    0.009911
     7  H   -0.005759
     8  C   -0.002252
     9  H    0.009911
    10  H   -0.005759
    11  O    0.000060
    12  H    0.007605
    13  H    0.000017
    14  H    0.007605
    15  H    0.000017
    16  H    0.006359
    17  H   -0.004528
    18  H   -0.004528
    19  H    0.531004
 Mulliken atomic charges:
              1
     1  N   -0.352190
     2  C   -0.106902
     3  C   -0.106902
     4  B   -0.027649
     5  C   -0.011762
     6  H    0.154281
     7  H    0.147329
     8  C   -0.011762
     9  H    0.154281
    10  H    0.147329
    11  O   -0.354405
    12  H    0.097343
    13  H    0.130022
    14  H    0.097343
    15  H    0.130022
    16  H   -0.099849
    17  H   -0.109878
    18  H   -0.109878
    19  H    0.233228
 Sum of Mulliken atomic charges =   0.00000
 Mulliken charges with hydrogens summed into heavy atoms:
              1
     1  N   -0.118962
     2  C    0.194708
     3  C    0.194708
     4  B   -0.347254
     5  C    0.215602
     8  C    0.215602
    11  O   -0.354405
 Sum of Mulliken charges with hydrogens summed into heavy atoms =   0.00000
 Electronic spatial extent (au):  <R**2>=            811.3817
 Charge=              0.0000 electrons
 Dipole moment (field-independent basis, Debye):
    X=              0.6491    Y=             -4.6618    Z=              0.0000  Tot=              4.7067
 Quadrupole moment (field-independent basis, Debye-Ang):
   XX=            -46.5170   YY=            -66.4410   ZZ=            -41.1511
   XY=             -4.8584   XZ=              0.0000   YZ=              0.0000
 Traceless Quadrupole moment (field-independent basis, Debye-Ang):
   XX=              4.8527   YY=            -15.0713   ZZ=             10.2186
   XY=             -4.8584   XZ=              0.0000   YZ=              0.0000
 Octapole moment (field-independent basis, Debye-Ang**2):
  XXX=             -3.9475  YYY=            -72.7752  ZZZ=              0.0000  XYY=             -7.9285
  XXY=            -12.3005  XXZ=              0.0000  XZZ=             -5.5006  YZZ=            -17.6207
  YYZ=              0.0000  XYZ=              0.0000
 Hexadecapole moment (field-independent basis, Debye-Ang**3):
 XXXX=           -137.1893 YYYY=           -882.6200 ZZZZ=           -316.6273 XXXY=            -75.4069
 XXXZ=              0.0000 YYYX=           -100.5389 YYYZ=              0.0000 ZZZX=              0.0000
 ZZZY=              0.0000 XXYY=           -165.6441 XXZZ=            -77.2177 YYZZ=           -181.0954
 XXYZ=              0.0000 YYXZ=              0.0000 ZZXY=            -20.2970
 N-N= 3.348759161845D+02 E-N=-1.400853490126D+03  KE= 3.131606374081D+02
 Symmetry A'   KE= 2.280218138153D+02
 Symmetry A"   KE= 8.513882359281D+01
 No NMR shielding tensors so no spin-rotation constants.
 Leave Link  601 at Tue Jul 23 21:52:07 2019, MaxMem=  196608000 cpu:       0.0
 (Enter C:\G09W\l701.exe)
 Compute integral first derivatives.
 ... and contract with generalized density number  0.
 Leave Link  701 at Tue Jul 23 21:52:08 2019, MaxMem=  196608000 cpu:       1.0
 (Enter C:\G09W\l702.exe)
 L702 exits ... SP integral derivatives will be done elsewhere.
 Leave Link  702 at Tue Jul 23 21:52:08 2019, MaxMem=  196608000 cpu:       0.0
 (Enter C:\G09W\l703.exe)
 Compute integral first derivatives, UseDBF=F ICtDFT=           0.
 Integral derivatives from FoFDir, PRISM(SPDF).
 Calling FoFJK, ICntrl=      2127 FMM=F ISym2X=1 I1Cent= 0 IOpClX= 0 NMat=1 NMatS=1 NMatT=0.
 FoFCou: FMM=F IPFlag=           0 FMFlag=      100000 FMFlg1=         800
         NFxFlg=           0 DoJE=F BraDBF=F KetDBF=F FulRan=T
         Omega=  0.000000  0.000000  1.000000  0.000000  0.000000 ICntrl=    2127 IOpCl=  0
         NMat0=    1 NMatS0=    1 NMatT0=    0 NMatD0=    1 NMtDS0=    0 NMtDT0=    0
         I1Cent=           0 NGrid=           0.
 Petite list used in FoFCou.
 Leave Link  703 at Tue Jul 23 21:52:32 2019, MaxMem=  196608000 cpu:      24.0
 (Enter C:\G09W\l716.exe)
 Dipole        = 2.55359019D-01-1.83408357D+00 1.22962934D-15
 ***** Axes restored to original set *****
 -------------------------------------------------------------------
 Center     Atomic                   Forces (Hartrees/Bohr)
 Number     Number              X              Y              Z
 -------------------------------------------------------------------
      1        7           0.002079659   -0.000046755    0.000000000
      2        6          -0.000381549    0.000223665    0.000870953
      3        6          -0.000381549    0.000223665   -0.000870953
      4        5           0.000020242   -0.001001458    0.000000000
      5        6           0.000396933    0.000062399   -0.002083188
      6        1           0.001217612   -0.000658812   -0.000150061
      7        1          -0.000869793   -0.000790626    0.001038962
      8        6           0.000396933    0.000062399    0.002083188
      9        1           0.001217612   -0.000658812    0.000150061
     10        1          -0.000869793   -0.000790626   -0.001038962
     11        8           0.000355948   -0.000056357    0.000000000
     12        1          -0.001376724    0.000354374    0.000272611
     13        1           0.000922117    0.000860662    0.001369550
     14        1          -0.001376724    0.000354374   -0.000272611
     15        1           0.000922117    0.000860662   -0.001369550
     16        1           0.001720985    0.000042073    0.000000000
     17        1          -0.000769516    0.000181094    0.001307448
     18        1          -0.000769516    0.000181094   -0.001307448
     19        1          -0.002454994    0.000596985    0.000000000
 -------------------------------------------------------------------
 Cartesian Forces:  Max     0.002454994 RMS     0.000939494
 Leave Link  716 at Tue Jul 23 21:52:32 2019, MaxMem=  196608000 cpu:       0.0
 (Enter C:\G09W\l103.exe)

 GradGradGradGradGradGradGradGradGradGradGradGradGradGradGradGradGradGrad
 Berny optimization.
 Internal  Forces:  Max     0.002525529 RMS     0.000610077
 Search for a local minimum.
 Step number   1 out of a maximum of  114
 All quantities printed in internal units (Hartrees-Bohrs-Radians)
 RMS Force = .61008D-03 SwitMx=.10000D-02 MixMth= 2
 Mixed Optimization -- En-DIIS/RFO-DIIS
 Second derivative matrix not updated -- first step.
 ITU=  0
     Eigenvalues ---    0.00249   0.00490   0.00506   0.00984   0.02157
     Eigenvalues ---    0.02245   0.03130   0.03975   0.04056   0.04077
     Eigenvalues ---    0.04078   0.04275   0.04411   0.04845   0.04949
     Eigenvalues ---    0.06209   0.06394   0.06855   0.07192   0.08088
     Eigenvalues ---    0.08399   0.09687   0.10285   0.10735   0.10761
     Eigenvalues ---    0.10914   0.12263   0.14229   0.14501   0.18081
     Eigenvalues ---    0.19977   0.20244   0.21862   0.21967   0.22796
     Eigenvalues ---    0.23130   0.24562   0.27631   0.27790   0.28091
     Eigenvalues ---    0.30575   0.30958   0.33552   0.33822   0.34405
     Eigenvalues ---    0.34491   0.34996   0.35070   0.35822   0.36271
     Eigenvalues ---    0.42318
 RFO step:  Lambda=-1.48606884D-04 EMin= 2.49281408D-03
 Linear search not attempted -- first point.
 Iteration  1 RMS(Cart)=  0.00298713 RMS(Int)=  0.00001314
 Iteration  2 RMS(Cart)=  0.00001614 RMS(Int)=  0.00000596
 Iteration  3 RMS(Cart)=  0.00000000 RMS(Int)=  0.00000596
 ClnCor:  largest displacement from symmetrization is 3.00D-10 for atom    15.
 Variable       Old X    -DE/DX   Delta X   Delta X   Delta X     New X
                                 (Linear)    (Quad)   (Total)
    R1        2.82077   0.00011   0.00000   0.00031   0.00031   2.82107
    R2        2.82077   0.00011   0.00000   0.00031   0.00031   2.82107
    R3        3.11552  -0.00060   0.00000  -0.00861  -0.00861   3.10691
    R4        1.93418  -0.00253   0.00000  -0.00587  -0.00587   1.92831
    R5        2.88483  -0.00126   0.00000  -0.00419  -0.00419   2.88064
    R6        2.06596  -0.00137   0.00000  -0.00394  -0.00394   2.06202
    R7        2.06565  -0.00153   0.00000  -0.00430  -0.00430   2.06135
    R8        2.88483  -0.00126   0.00000  -0.00419  -0.00419   2.88064
    R9        2.06596  -0.00137   0.00000  -0.00394  -0.00394   2.06202
   R10        2.06565  -0.00153   0.00000  -0.00430  -0.00430   2.06135
   R11        2.29304  -0.00165   0.00000  -0.00686  -0.00686   2.28617
   R12        2.29372  -0.00142   0.00000  -0.00590  -0.00590   2.28782
   R13        2.29372  -0.00142   0.00000  -0.00590  -0.00590   2.28782
   R14        2.68323   0.00012   0.00000   0.00138   0.00138   2.68462
   R15        2.08860  -0.00142   0.00000  -0.00449  -0.00449   2.08411
   R16        2.06690  -0.00185   0.00000  -0.00534  -0.00534   2.06156
   R17        2.68323   0.00012   0.00000   0.00138   0.00138   2.68462
   R18        2.08860  -0.00142   0.00000  -0.00449  -0.00449   2.08411
   R19        2.06690  -0.00185   0.00000  -0.00534  -0.00534   2.06156
    A1        1.91971   0.00008   0.00000  -0.00003  -0.00003   1.91968
    A2        1.96915   0.00001   0.00000   0.00127   0.00127   1.97042
    A3        1.87871  -0.00006   0.00000  -0.00142  -0.00142   1.87729
    A4        1.96915   0.00001   0.00000   0.00127   0.00127   1.97042
    A5        1.87871  -0.00006   0.00000  -0.00142  -0.00142   1.87729
    A6        1.84234   0.00000   0.00000   0.00004   0.00004   1.84238
    A7        1.94161  -0.00002   0.00000   0.00034   0.00034   1.94195
    A8        1.85685   0.00016   0.00000   0.00199   0.00199   1.85884
    A9        1.87996   0.00021   0.00000   0.00163   0.00163   1.88159
   A10        1.93619  -0.00009   0.00000  -0.00102  -0.00103   1.93516
   A11        1.95537  -0.00021   0.00000  -0.00231  -0.00231   1.95306
   A12        1.88992  -0.00001   0.00000  -0.00036  -0.00037   1.88955
   A13        1.94161  -0.00002   0.00000   0.00034   0.00034   1.94195
   A14        1.85685   0.00016   0.00000   0.00199   0.00199   1.85884
   A15        1.87996   0.00021   0.00000   0.00163   0.00163   1.88159
   A16        1.93619  -0.00009   0.00000  -0.00102  -0.00103   1.93516
   A17        1.95537  -0.00021   0.00000  -0.00231  -0.00231   1.95306
   A18        1.88992  -0.00001   0.00000  -0.00036  -0.00037   1.88955
   A19        1.84002   0.00064   0.00000   0.00559   0.00557   1.84558
   A20        1.82911   0.00080   0.00000   0.00621   0.00619   1.83529
   A21        1.82911   0.00080   0.00000   0.00621   0.00619   1.83529
   A22        1.98279  -0.00060   0.00000  -0.00499  -0.00502   1.97777
   A23        1.98279  -0.00060   0.00000  -0.00499  -0.00502   1.97777
   A24        1.97939  -0.00062   0.00000  -0.00475  -0.00478   1.97461
   A25        1.94572  -0.00007   0.00000   0.00000   0.00000   1.94571
   A26        1.92269   0.00021   0.00000   0.00209   0.00209   1.92478
   A27        1.92609  -0.00017   0.00000  -0.00133  -0.00133   1.92475
   A28        1.92080  -0.00020   0.00000  -0.00243  -0.00243   1.91837
   A29        1.86230   0.00019   0.00000   0.00047   0.00047   1.86278
   A30        1.88442   0.00005   0.00000   0.00116   0.00116   1.88558
   A31        1.94572  -0.00007   0.00000   0.00000   0.00000   1.94571
   A32        1.92269   0.00021   0.00000   0.00209   0.00209   1.92478
   A33        1.92609  -0.00017   0.00000  -0.00133  -0.00133   1.92475
   A34        1.92080  -0.00020   0.00000  -0.00243  -0.00243   1.91837
   A35        1.86230   0.00019   0.00000   0.00047   0.00047   1.86278
   A36        1.88442   0.00005   0.00000   0.00116   0.00116   1.88558
   A37        1.94195   0.00014   0.00000   0.00024   0.00024   1.94220
    D1        0.90560  -0.00001   0.00000   0.00010   0.00010   0.90570
    D2       -1.20500   0.00002   0.00000  -0.00010  -0.00010  -1.20510
    D3        3.05487  -0.00014   0.00000  -0.00147  -0.00147   3.05340
    D4        3.12109   0.00008   0.00000   0.00275   0.00275   3.12383
    D5        1.01049   0.00011   0.00000   0.00254   0.00254   1.01303
    D6       -1.01283  -0.00005   0.00000   0.00118   0.00118  -1.01165
    D7       -1.13658   0.00005   0.00000   0.00262   0.00262  -1.13396
    D8        3.03601   0.00008   0.00000   0.00242   0.00242   3.03842
    D9        1.01269  -0.00008   0.00000   0.00105   0.00105   1.01374
   D10       -0.90560   0.00001   0.00000  -0.00010  -0.00010  -0.90570
   D11        1.20500  -0.00002   0.00000   0.00010   0.00010   1.20510
   D12       -3.05487   0.00014   0.00000   0.00147   0.00147  -3.05340
   D13       -3.12109  -0.00008   0.00000  -0.00275  -0.00275  -3.12383
   D14       -1.01049  -0.00011   0.00000  -0.00254  -0.00254  -1.01303
   D15        1.01283   0.00005   0.00000  -0.00118  -0.00118   1.01165
   D16        1.13658  -0.00005   0.00000  -0.00262  -0.00262   1.13396
   D17       -3.03601  -0.00008   0.00000  -0.00242  -0.00242  -3.03842
   D18       -1.01269   0.00008   0.00000  -0.00105  -0.00105  -1.01374
   D19       -1.09449  -0.00006   0.00000  -0.00102  -0.00102  -1.09551
   D20        3.09134  -0.00005   0.00000  -0.00088  -0.00088   3.09047
   D21        1.00286  -0.00008   0.00000  -0.00115  -0.00116   1.00171
   D22        1.09449   0.00006   0.00000   0.00102   0.00102   1.09551
   D23       -1.00286   0.00008   0.00000   0.00115   0.00116  -1.00171
   D24       -3.09134   0.00005   0.00000   0.00088   0.00088  -3.09047
   D25        3.14159   0.00000   0.00000   0.00000   0.00000   3.14159
   D26        1.04424   0.00001   0.00000   0.00014   0.00014   1.04438
   D27       -1.04424  -0.00001   0.00000  -0.00014  -0.00014  -1.04438
   D28       -0.97496   0.00007   0.00000   0.00036   0.00035  -0.97461
   D29        1.16277  -0.00008   0.00000  -0.00129  -0.00129   1.16149
   D30       -3.04122   0.00000   0.00000   0.00063   0.00063  -3.04059
   D31        1.08840   0.00019   0.00000   0.00240   0.00240   1.09080
   D32       -3.05705   0.00004   0.00000   0.00076   0.00076  -3.05629
   D33       -0.97786   0.00012   0.00000   0.00268   0.00268  -0.97518
   D34       -3.08040  -0.00004   0.00000  -0.00038  -0.00038  -3.08078
   D35       -0.94267  -0.00019   0.00000  -0.00202  -0.00202  -0.94468
   D36        1.13652  -0.00011   0.00000  -0.00010  -0.00010   1.13642
   D37        0.97496  -0.00007   0.00000  -0.00036  -0.00035   0.97461
   D38       -1.16277   0.00008   0.00000   0.00129   0.00129  -1.16149
   D39        3.04122   0.00000   0.00000  -0.00063  -0.00063   3.04059
   D40       -1.08840  -0.00019   0.00000  -0.00240  -0.00240  -1.09080
   D41        3.05705  -0.00004   0.00000  -0.00076  -0.00076   3.05629
   D42        0.97786  -0.00012   0.00000  -0.00268  -0.00268   0.97518
   D43        3.08040   0.00004   0.00000   0.00038   0.00038   3.08078
   D44        0.94267   0.00019   0.00000   0.00202   0.00202   0.94468
   D45       -1.13652   0.00011   0.00000   0.00010   0.00010  -1.13642
   D46       -1.03292  -0.00004   0.00000   0.00089   0.00089  -1.03203
   D47        1.10590   0.00004   0.00000   0.00185   0.00185   1.10775
   D48       -3.13702   0.00010   0.00000   0.00222   0.00222  -3.13479
   D49        1.03292   0.00004   0.00000  -0.00089  -0.00089   1.03203
   D50       -1.10590  -0.00004   0.00000  -0.00185  -0.00185  -1.10775
   D51        3.13702  -0.00010   0.00000  -0.00222  -0.00222   3.13479
         Item               Value     Threshold  Converged?
 Maximum Force            0.002526     0.000450     NO 
 RMS     Force            0.000610     0.000300     NO 
 Maximum Displacement     0.013094     0.001800     NO 
 RMS     Displacement     0.002987     0.001200     NO 
 Predicted change in Energy=-7.436284D-05
 GradGradGradGradGradGradGradGradGradGradGradGradGradGradGradGradGradGrad

 Leave Link  103 at Tue Jul 23 21:52:33 2019, MaxMem=  196608000 cpu:       1.0
 (Enter C:\G09W\l202.exe)
                          Input orientation:                          
 ---------------------------------------------------------------------
 Center     Atomic      Atomic             Coordinates (Angstroms)
 Number     Number       Type             X           Y           Z
 ---------------------------------------------------------------------
      1          7           0        0.524104    0.889179    0.000000
      2          6           0       -0.104609    0.307722    1.222793
      3          6           0       -0.104609    0.307722   -1.222793
      4          5           0        0.522457    2.533283    0.000000
      5          6           0       -0.105697   -1.215825   -1.172745
      6          1           0       -1.123523    0.696219   -1.262079
      7          1           0        0.439118    0.685987   -2.089491
      8          6           0       -0.105697   -1.215825    1.172745
      9          1           0       -1.123523    0.696219    1.262079
     10          1           0        0.439118    0.685987    2.089491
     11          8           0       -0.746798   -1.697354    0.000000
     12          1           0        0.926698   -1.600661   -1.221444
     13          1           0       -0.657836   -1.621649   -2.021614
     14          1           0        0.926698   -1.600661    1.221444
     15          1           0       -0.657836   -1.621649    2.021614
     16          1           0       -0.642275    2.860385    0.000000
     17          1           0        1.109269    2.850368   -1.010354
     18          1           0        1.109269    2.850368    1.010354
     19          1           0        1.507396    0.616426    0.000000
 ---------------------------------------------------------------------
                    Distance matrix (angstroms):
                    1          2          3          4          5
     1  N    0.000000
     2  C    1.492848   0.000000
     3  C    1.492848   2.445586   0.000000
     4  B    1.644105   2.615637   2.615637   0.000000
     5  C    2.490587   2.838979   1.524369   3.978155   0.000000
     6  H    2.084407   2.713614   1.091172   2.770721   2.167916
     7  H    2.101067   3.377861   1.090820   2.790236   2.180397
     8  C    2.490587   1.524369   2.838979   3.978155   2.345491
     9  H    2.084407   1.091172   2.713614   2.770721   3.258872
    10  H    2.101067   1.090820   3.377861   2.790236   3.815219
    11  O    2.881899   2.434740   2.434740   4.416932   1.420638
    12  H    2.802376   3.267999   2.169222   4.329530   1.102865
    13  H    3.433390   3.815064   2.160243   4.769012   1.090930
    14  H    2.802376   2.169222   3.267999   4.329530   2.635542
    15  H    3.433390   2.160243   3.815064   4.769012   3.267030
    16  H    2.290435   2.881040   2.881040   1.209791   4.275363
    17  H    2.282432   3.595204   2.825540   1.210664   4.246933
    18  H    2.282432   2.825540   3.595204   1.210664   4.772419
    19  H    1.020420   2.046725   2.046725   2.155098   2.708236
                    6          7          8          9         10
     6  H    0.000000
     7  H    1.768209   0.000000
     8  C    3.258872   3.815219   0.000000
     9  H    2.524158   3.697968   2.167916   0.000000
    10  H    3.697968   4.178981   2.180397   1.768209   0.000000
    11  O    2.732023   3.384181   1.420638   2.732023   3.384181
    12  H    3.079077   2.493992   2.635542   3.955622   4.053243
    13  H    2.483197   2.555993   3.267030   4.046235   4.840421
    14  H    3.955622   4.053243   1.102865   3.079077   2.493992
    15  H    4.046235   4.840421   1.090930   2.483197   2.555993
    16  H    2.551089   3.203652   4.275363   2.551089   3.203652
    17  H    3.112729   2.509618   4.772419   3.845734   3.839620
    18  H    3.845734   3.839620   4.246933   3.112729   2.509618
    19  H    2.919066   2.347771   2.708236   2.919066   2.347771
                   11         12         13         14         15
    11  O    0.000000
    12  H    2.074094   0.000000
    13  H    2.024987   1.775236   0.000000
    14  H    2.074094   2.442888   3.609518   0.000000
    15  H    2.024987   3.609518   4.043229   1.775236   0.000000
    16  H    4.558937   4.884110   4.916888   4.884110   4.916888
    17  H    5.014735   4.459770   4.913679   4.982561   5.684578
    18  H    5.014735   4.982561   5.684578   4.459770   4.913679
    19  H    3.230320   2.597039   3.712699   2.597039   3.712699
                   16         17         18         19
    16  H    0.000000
    17  H    2.022084   0.000000
    18  H    2.022084   2.020707   0.000000
    19  H    3.107481   2.483912   2.483912   0.000000
 Stoichiometry    C4H12BNO
 Framework group  CS[SG(H2BNO),X(C4H10)]
 Deg. of freedom    28
 Full point group                 CS      NOp   2
 Largest Abelian subgroup         CS      NOp   2
 Largest concise Abelian subgroup CS      NOp   2
                         Standard orientation:                         
 ---------------------------------------------------------------------
 Center     Atomic      Atomic             Coordinates (Angstroms)
 Number     Number       Type             X           Y           Z
 ---------------------------------------------------------------------
      1          7           0        0.522834    0.891125    0.000000
      2          6           0       -0.105465    0.309220    1.222793
      3          6           0       -0.105465    0.309220   -1.222793
      4          5           0        0.520012    2.535227    0.000000
      5          6           0       -0.105465   -1.214328   -1.172745
      6          1           0       -1.124655    0.696988   -1.262079
      7          1           0        0.437993    0.687872   -2.089491
      8          6           0       -0.105465   -1.214328    1.172745
      9          1           0       -1.124655    0.696988    1.262079
     10          1           0        0.437993    0.687872    2.089491
     11          8           0       -0.746221   -1.696314    0.000000
     12          1           0        0.927205   -1.598427   -1.221444
     13          1           0       -0.657313   -1.620546   -2.021614
     14          1           0        0.927205   -1.598427    1.221444
     15          1           0       -0.657313   -1.620546    2.021614
     16          1           0       -0.644953    2.861497    0.000000
     17          1           0        1.106598    2.852731   -1.010354
     18          1           0        1.106598    2.852731    1.010354
     19          1           0        1.506320    0.619074    0.000000
 ---------------------------------------------------------------------
 Rotational constants (GHZ):      4.6238267      2.1986659      1.6356796
 Leave Link  202 at Tue Jul 23 21:52:33 2019, MaxMem=  196608000 cpu:       0.0
 (Enter C:\G09W\l301.exe)
 Standard basis: 6-311G(2d,d,p) (5D, 7F)
 Ernie: Thresh=  0.10000D-02 Tol=  0.10000D-05 Strict=F.
 There are   115 symmetry adapted basis functions of A'  symmetry.
 There are    83 symmetry adapted basis functions of A"  symmetry.
 Integral buffers will be    262144 words long.
 Raffenetti 2 integral format.
 Two-electron integral symmetry is turned on.
   198 basis functions,   320 primitive gaussians,   205 cartesian basis functions
    28 alpha electrons       28 beta electrons
       nuclear repulsion energy       335.1276370884 Hartrees.
 IExCor=  402 DFT=T Ex+Corr=B3LYP ExCW=0 ScaHFX=  0.200000
 ScaDFX=  0.800000  0.720000  1.000000  0.810000 ScalE2=  1.000000  1.000000
 IRadAn=      0 IRanWt=     -1 IRanGd=            0 ICorTp=0
 NAtoms=   19 NActive=   19 NUniq=   12 SFac= 2.51D+00 NAtFMM=   50 NAOKFM=F Big=F
 Leave Link  301 at Tue Jul 23 21:52:33 2019, MaxMem=  196608000 cpu:       0.0
 (Enter C:\G09W\l302.exe)
 NPDir=0 NMtPBC=     1 NCelOv=     1 NCel=       1 NClECP=     1 NCelD=      1
         NCelK=      1 NCelE2=     1 NClLst=     1 CellRange=     0.0.
 One-electron integrals computed using PRISM.
 One-electron integral symmetry used in STVInt
 NBasis=   198 RedAO= T  NBF=   115    83
 NBsUse=   198 1.00D-06 NBFU=   115    83
 Precomputing XC quadrature grid using
 IXCGrd= 2 IRadAn=           0 IRanWt=          -1 IRanGd=           0 AccXCQ= 0.00D+00.
 NRdTot=    1196 NPtTot=      151710 NUsed=      157295 NTot=      157311
 NSgBfM=   205   205   205   205   205 NAtAll=    19    19.
 Leave Link  302 at Tue Jul 23 21:52:33 2019, MaxMem=  196608000 cpu:       0.0
 (Enter C:\G09W\l303.exe)
 DipDrv:  MaxL=1.
 Leave Link  303 at Tue Jul 23 21:52:33 2019, MaxMem=  196608000 cpu:       0.0
 (Enter C:\G09W\l401.exe)
 Initial guess read from the read-write file.
 B after Tr=     0.000000    0.000000    0.000000
         Rot=    1.000000    0.000000    0.000000    0.000000 Ang=   0.00 deg.
 Guess basis will be translated and rotated to current coordinates.
 Initial guess orbital symmetries:
       Occupied  (A') (A') (A") (A') (A") (A') (A') (A') (A') (A")
                 (A') (A") (A') (A') (A') (A") (A') (A") (A') (A")
                 (A') (A") (A") (A') (A') (A') (A") (A')
       Virtual   (A') (A') (A") (A') (A') (A") (A') (A') (A") (A")
                 (A') (A') (A") (A') (A") (A') (A") (A') (A") (A')
                 (A") (A') (A") (A') (A") (A') (A') (A") (A') (A")
                 (A') (A') (A') (A") (A") (A') (A") (A') (A") (A")
                 (A') (A') (A') (A') (A") (A') (A") (A') (A') (A")
                 (A') (A') (A') (A") (A") (A") (A') (A') (A") (A')
                 (A") (A') (A') (A") (A') (A") (A") (A') (A') (A")
                 (A") (A') (A") (A') (A") (A') (A') (A") (A") (A')
                 (A") (A') (A') (A') (A") (A') (A') (A") (A') (A")
                 (A") (A') (A") (A') (A") (A') (A') (A") (A') (A')
                 (A") (A') (A") (A") (A') (A') (A") (A') (A") (A')
                 (A') (A") (A') (A') (A') (A") (A") (A') (A") (A')
                 (A") (A') (A") (A") (A') (A') (A") (A') (A') (A")
                 (A") (A') (A') (A") (A') (A") (A') (A') (A") (A")
                 (A') (A") (A') (A') (A') (A") (A') (A") (A') (A")
                 (A') (A") (A') (A') (A") (A") (A') (A') (A') (A")
                 (A') (A') (A") (A') (A') (A') (A") (A") (A') (A')
 The electronic state of the initial guess is 1-A'.
 Leave Link  401 at Tue Jul 23 21:52:34 2019, MaxMem=  196608000 cpu:       0.0
 (Enter C:\G09W\l502.exe)
 Closed shell SCF:
 Requested convergence on RMS density matrix=1.00D-08 within 128 cycles.
 Requested convergence on MAX density matrix=1.00D-06.
 Requested convergence on             energy=1.00D-06.
 No special actions if energy rises.
 Using DIIS extrapolation, IDIIS=  1040.
 Integral symmetry usage will be decided dynamically.
       157130 words used for storage of precomputed grid.
 IEnd=      303998 IEndB=      303998 NGot=   196608000 MDV=   196362873
 LenX=   196362873 LenY=   196320407
 Fock matrices will be formed incrementally for  20 cycles.

 Cycle   1  Pass 1  IDiag  1:
 FoFCou: FMM=F IPFlag=           0 FMFlag=      100000 FMFlg1=           0
         NFxFlg=           0 DoJE=F BraDBF=F KetDBF=F FulRan=T
         Omega=  0.000000  0.000000  1.000000  0.000000  0.000000 ICntrl=       0 IOpCl=  0
         NMat0=    1 NMatS0=    1 NMatT0=    0 NMatD0=    1 NMtDS0=    0 NMtDT0=    0
         I1Cent=           0 NGrid=           0.
 Petite list used in FoFCou.
 E= -314.550999696333    
 DIIS: error= 2.35D-04 at cycle   1 NSaved=   1.
 NSaved= 1 IEnMin= 1 EnMin= -314.550999696333     IErMin= 1 ErrMin= 2.35D-04
 ErrMax= 2.35D-04 EMaxC= 1.00D-01 BMatC= 2.05D-05 BMatP= 2.05D-05
 IDIUse=3 WtCom= 9.98D-01 WtEn= 2.35D-03
 Coeff-Com:  0.100D+01
 Coeff-En:   0.100D+01
 Coeff:      0.100D+01
 Gap=     0.290 Goal=   None    Shift=    0.000
 RMSDP=3.04D-05 MaxDP=8.31D-04              OVMax= 1.39D-03

 Cycle   2  Pass 1  IDiag  1:
 RMSU=  2.15D-05    CP:  1.00D+00
 E= -314.551019007601     Delta-E=       -0.000019311268 Rises=F Damp=F
 DIIS: error= 1.27D-04 at cycle   2 NSaved=   2.
 NSaved= 2 IEnMin= 2 EnMin= -314.551019007601     IErMin= 2 ErrMin= 1.27D-04
 ErrMax= 1.27D-04 EMaxC= 1.00D-01 BMatC= 4.22D-06 BMatP= 2.05D-05
 IDIUse=3 WtCom= 9.99D-01 WtEn= 1.27D-03
 Coeff-Com:  0.228D+00 0.772D+00
 Coeff-En:   0.000D+00 0.100D+01
 Coeff:      0.228D+00 0.772D+00
 Gap=     0.289 Goal=   None    Shift=    0.000
 RMSDP=1.34D-05 MaxDP=4.26D-04 DE=-1.93D-05 OVMax= 5.72D-04

 Cycle   3  Pass 1  IDiag  1:
 RMSU=  8.38D-06    CP:  1.00D+00  7.97D-01
 E= -314.551020313358     Delta-E=       -0.000001305757 Rises=F Damp=F
 DIIS: error= 1.38D-04 at cycle   3 NSaved=   3.
 NSaved= 3 IEnMin= 3 EnMin= -314.551020313358     IErMin= 2 ErrMin= 1.27D-04
 ErrMax= 1.38D-04 EMaxC= 1.00D-01 BMatC= 3.40D-06 BMatP= 4.22D-06
 IDIUse=3 WtCom= 9.99D-01 WtEn= 1.38D-03
 Coeff-Com:  0.101D-01 0.471D+00 0.519D+00
 Coeff-En:   0.000D+00 0.410D+00 0.590D+00
 Coeff:      0.101D-01 0.470D+00 0.520D+00
 Gap=     0.289 Goal=   None    Shift=    0.000
 RMSDP=7.01D-06 MaxDP=2.02D-04 DE=-1.31D-06 OVMax= 2.91D-04

 Cycle   4  Pass 1  IDiag  1:
 RMSU=  2.63D-06    CP:  1.00D+00  9.00D-01  5.83D-01
 E= -314.551022923231     Delta-E=       -0.000002609873 Rises=F Damp=F
 DIIS: error= 2.57D-05 at cycle   4 NSaved=   4.
 NSaved= 4 IEnMin= 4 EnMin= -314.551022923231     IErMin= 4 ErrMin= 2.57D-05
 ErrMax= 2.57D-05 EMaxC= 1.00D-01 BMatC= 1.42D-07 BMatP= 3.40D-06
 IDIUse=1 WtCom= 1.00D+00 WtEn= 0.00D+00
 Coeff-Com: -0.575D-02 0.201D+00 0.266D+00 0.539D+00
 Coeff:     -0.575D-02 0.201D+00 0.266D+00 0.539D+00
 Gap=     0.289 Goal=   None    Shift=    0.000
 RMSDP=1.81D-06 MaxDP=5.47D-05 DE=-2.61D-06 OVMax= 8.65D-05

 Cycle   5  Pass 1  IDiag  1:
 RMSU=  5.92D-07    CP:  1.00D+00  9.05D-01  5.84D-01  5.72D-01
 E= -314.551023035954     Delta-E=       -0.000000112723 Rises=F Damp=F
 DIIS: error= 4.91D-06 at cycle   5 NSaved=   5.
 NSaved= 5 IEnMin= 5 EnMin= -314.551023035954     IErMin= 5 ErrMin= 4.91D-06
 ErrMax= 4.91D-06 EMaxC= 1.00D-01 BMatC= 5.80D-09 BMatP= 1.42D-07
 IDIUse=1 WtCom= 1.00D+00 WtEn= 0.00D+00
 Coeff-Com: -0.372D-02 0.538D-01 0.779D-01 0.227D+00 0.645D+00
 Coeff:     -0.372D-02 0.538D-01 0.779D-01 0.227D+00 0.645D+00
 Gap=     0.289 Goal=   None    Shift=    0.000
 RMSDP=4.32D-07 MaxDP=9.16D-06 DE=-1.13D-07 OVMax= 1.50D-05

 Cycle   6  Pass 1  IDiag  1:
 RMSU=  1.91D-07    CP:  1.00D+00  9.07D-01  5.91D-01  6.26D-01  7.03D-01
 E= -314.551023040532     Delta-E=       -0.000000004577 Rises=F Damp=F
 DIIS: error= 1.59D-06 at cycle   6 NSaved=   6.
 NSaved= 6 IEnMin= 6 EnMin= -314.551023040532     IErMin= 6 ErrMin= 1.59D-06
 ErrMax= 1.59D-06 EMaxC= 1.00D-01 BMatC= 5.15D-10 BMatP= 5.80D-09
 IDIUse=1 WtCom= 1.00D+00 WtEn= 0.00D+00
 Coeff-Com: -0.117D-02 0.869D-02 0.143D-01 0.582D-01 0.286D+00 0.634D+00
 Coeff:     -0.117D-02 0.869D-02 0.143D-01 0.582D-01 0.286D+00 0.634D+00
 Gap=     0.289 Goal=   None    Shift=    0.000
 RMSDP=1.16D-07 MaxDP=3.16D-06 DE=-4.58D-09 OVMax= 4.65D-06

 Cycle   7  Pass 1  IDiag  1:
 RMSU=  4.27D-08    CP:  1.00D+00  9.07D-01  5.92D-01  6.22D-01  7.70D-01
                    CP:  7.06D-01
 E= -314.551023040942     Delta-E=       -0.000000000410 Rises=F Damp=F
 DIIS: error= 7.09D-07 at cycle   7 NSaved=   7.
 NSaved= 7 IEnMin= 7 EnMin= -314.551023040942     IErMin= 7 ErrMin= 7.09D-07
 ErrMax= 7.09D-07 EMaxC= 1.00D-01 BMatC= 6.29D-11 BMatP= 5.15D-10
 IDIUse=1 WtCom= 1.00D+00 WtEn= 0.00D+00
 Coeff-Com: -0.261D-03-0.105D-02-0.518D-03 0.764D-02 0.840D-01 0.318D+00
 Coeff-Com:  0.592D+00
 Coeff:     -0.261D-03-0.105D-02-0.518D-03 0.764D-02 0.840D-01 0.318D+00
 Coeff:      0.592D+00
 Gap=     0.289 Goal=   None    Shift=    0.000
 RMSDP=2.64D-08 MaxDP=1.71D-06 DE=-4.10D-10 OVMax= 1.53D-06

 Cycle   8  Pass 1  IDiag  1:
 RMSU=  1.26D-08    CP:  1.00D+00  9.07D-01  5.92D-01  6.23D-01  7.72D-01
                    CP:  7.36D-01  7.23D-01
 E= -314.551023040986     Delta-E=       -0.000000000045 Rises=F Damp=F
 DIIS: error= 2.10D-07 at cycle   8 NSaved=   8.
 NSaved= 8 IEnMin= 8 EnMin= -314.551023040986     IErMin= 8 ErrMin= 2.10D-07
 ErrMax= 2.10D-07 EMaxC= 1.00D-01 BMatC= 4.19D-12 BMatP= 6.29D-11
 IDIUse=1 WtCom= 1.00D+00 WtEn= 0.00D+00
 Coeff-Com: -0.515D-04-0.102D-02-0.110D-02 0.526D-04 0.206D-01 0.112D+00
 Coeff-Com:  0.291D+00 0.579D+00
 Coeff:     -0.515D-04-0.102D-02-0.110D-02 0.526D-04 0.206D-01 0.112D+00
 Coeff:      0.291D+00 0.579D+00
 Gap=     0.289 Goal=   None    Shift=    0.000
 RMSDP=8.21D-09 MaxDP=3.03D-07 DE=-4.47D-11 OVMax= 4.45D-07

 SCF Done:  E(RB3LYP) =  -314.551023041     A.U. after    8 cycles
             Convg  =    0.8214D-08             -V/T =  2.0043
 KE= 3.132068177494D+02 PE=-1.401387195107D+03 EE= 4.385017172278D+02
 Leave Link  502 at Tue Jul 23 21:53:41 2019, MaxMem=  196608000 cpu:      67.0
 (Enter C:\G09W\l701.exe)
 Compute integral first derivatives.
 ... and contract with generalized density number  0.
 Leave Link  701 at Tue Jul 23 21:53:41 2019, MaxMem=  196608000 cpu:       0.0
 (Enter C:\G09W\l702.exe)
 L702 exits ... SP integral derivatives will be done elsewhere.
 Leave Link  702 at Tue Jul 23 21:53:41 2019, MaxMem=  196608000 cpu:       0.0
 (Enter C:\G09W\l703.exe)
 Compute integral first derivatives, UseDBF=F ICtDFT=           0.
 Integral derivatives from FoFDir, PRISM(SPDF).
 Calling FoFJK, ICntrl=      2127 FMM=F ISym2X=1 I1Cent= 0 IOpClX= 0 NMat=1 NMatS=1 NMatT=0.
 FoFCou: FMM=F IPFlag=           0 FMFlag=      100000 FMFlg1=         800
         NFxFlg=           0 DoJE=F BraDBF=F KetDBF=F FulRan=T
         Omega=  0.000000  0.000000  1.000000  0.000000  0.000000 ICntrl=    2127 IOpCl=  0
         NMat0=    1 NMatS0=    1 NMatT0=    0 NMatD0=    1 NMtDS0=    0 NMtDT0=    0
[...]
 1,0.01134020,0.00845743,0.00867304,0.60788660,-0.01805880,-0.09621938,
 -0.02974524,0.00845743,0.00916013,0.00924753,-0.02885187,0.48994939,-0
 .02756294,-0.01504605,-0.13774918,-0.00867304,-0.00924753,-0.03731025,
 -0.07103957,-0.05865247,0.52924659,-0.05306367,0.00449439,0.,0.0007772
 7,-0.01154814,0.00158983,0.00077727,-0.01154814,-0.00158983,0.37923733
 ,0.00687184,-0.06128138,0.,-0.00730242,-0.01189749,0.01277339,-0.00730
 242,-0.01189749,-0.01277339,-0.00278910,0.21156175,0.,0.,-0.05220653,0
 .00007858,0.02043122,-0.00005778,-0.00007858,-0.02043122,-0.00005778,0
 .,0.,0.38078661,-0.00152263,-0.02173565,-0.00471815,0.00030371,0.00017
 943,-0.00111069,-0.08640255,0.01393928,-0.00261029,-0.00148380,0.00148
 389,-0.00191015,0.56885243,-0.00398706,-0.01825495,-0.00825261,0.00000
 096,-0.00038340,-0.00439237,0.01256833,-0.18394060,-0.01153164,-0.0003
 4908,-0.00016882,-0.00205075,-0.00651454,0.47584403,-0.00280854,-0.042
 59754,-0.00617404,0.00057251,-0.00154534,0.00693300,-0.00154310,0.0078
 8876,-0.08187410,-0.00174274,0.00299983,-0.00425862,0.07711079,0.06305
 505,0.54563488,-0.01862722,0.00194164,-0.00483011,0.00012903,0.0000780
 1,0.00120652,-0.28016908,0.08672848,-0.00652613,-0.00025115,0.00170281
 ,0.00029472,0.00175528,-0.00048236,0.00156016,0.30442512,-0.01544189,0
 .00334095,-0.00259416,0.00031470,-0.00026557,0.00078156,0.09090573,-0.
 08153759,0.00449606,-0.00185030,0.00138602,-0.00026410,0.03337527,-0.0
 1423727,-0.00075187,-0.09397683,0.08912512,-0.03397683,0.00628387,-0.0
 0703727,-0.00195570,0.00040242,0.00172487,0.00225039,0.00191306,-0.049
 91569,-0.00068243,0.00160813,0.00029944,0.00066468,0.00078901,-0.00038
 301,0.01174570,0.00183285,0.05651289,0.00792891,0.00448145,-0.01709870
 ,-0.00147569,-0.00168544,-0.00206736,-0.12182503,-0.04713015,0.1129352
 5,0.00006908,0.00027341,-0.00026643,-0.00031906,0.00238266,-0.00193184
 ,-0.01294871,-0.01088321,0.02306289,0.12510547,0.00782218,0.00391412,-
 0.01291474,-0.00166947,-0.00154617,-0.00220170,-0.04816105,-0.08328772
 ,0.07682140,0.00073287,0.00100160,-0.00171385,-0.01656742,-0.00437865,
 0.02553426,0.00555359,0.00449808,-0.00956115,0.05279575,0.08621243,0.0
 1368170,0.00668272,-0.02954988,-0.00438330,-0.00310093,-0.00208832,0.1
 0391980,0.07012285,-0.21005333,0.00081562,0.00211341,-0.00027557,0.000
 09051,0.00132689,0.00086606,-0.00026052,-0.00076999,0.00248842,-0.1134
 0948,-0.07699259,0.23559946,-0.00152263,-0.02173565,0.00471815,-0.0864
 0255,0.01393928,0.00261029,0.00030371,0.00017943,0.00111069,-0.0014838
 0,0.00148389,0.00191015,0.00725964,0.00926795,0.01046046,0.00004019,0.
 00022921,-0.00006514,-0.00028699,-0.00093488,-0.00008475,0.56885243,-0
 .00398706,-0.01825495,0.00825261,0.01256833,-0.18394060,0.01153164,0.0
 0000096,-0.00038340,0.00439237,-0.00034908,-0.00016882,0.00205075,0.00
 926795,0.00673438,0.00590409,0.00001005,-0.00014097,-0.00011226,-0.000
 09482,-0.00083347,-0.00094354,-0.00651454,0.47584403,0.00280854,0.0425
 9754,-0.00617404,0.00154310,-0.00788876,-0.08187410,-0.00057251,0.0015
 4534,0.00693300,0.00174274,-0.00299983,-0.00425862,-0.01046046,-0.0059
 0409,-0.05451831,-0.00019378,0.00032181,-0.00049696,-0.00055746,-0.001
 98632,-0.00042566,-0.07711079,-0.06305505,0.54563488,-0.01862722,0.001
 94164,0.00483011,-0.28016908,0.08672848,0.00652613,0.00012903,0.000078
 01,-0.00120652,-0.00025115,0.00170281,-0.00029472,0.00004019,0.0000100
 5,0.00019378,0.00063369,0.00020713,0.00047725,0.00031817,-0.00009704,0
 .00002022,0.00175528,-0.00048236,-0.00156016,0.30442512,-0.01544189,0.
 00334095,0.00259416,0.09090573,-0.08153759,-0.00449606,0.00031470,-0.0
 0026557,-0.00078156,-0.00185030,0.00138602,0.00026410,0.00022921,-0.00
 014097,-0.00032181,0.00020713,0.00021835,-0.00014344,-0.00001778,-0.00
 002989,-0.00007889,0.03337527,-0.01423727,0.00075187,-0.09397683,0.089
 12512,0.03397683,-0.00628387,-0.00703727,-0.00225039,-0.00191306,-0.04
 991569,0.00195570,-0.00040242,0.00172487,0.00068243,-0.00160813,0.0002
 9944,0.00006514,0.00011226,-0.00049696,-0.00047725,0.00014344,-0.00043
 643,-0.00028076,0.00017059,0.00017827,-0.00066468,-0.00078901,-0.00038
 301,-0.01174570,-0.00183285,0.05651289,0.00792891,0.00448145,0.0170987
 0,-0.12182503,-0.04713015,-0.11293525,-0.00147569,-0.00168544,0.002067
 36,0.00006908,0.00027341,0.00026643,-0.00028699,-0.00009482,0.00055746
 ,0.00031817,-0.00001778,0.00028076,0.00059506,0.00021440,0.00068416,-0
 .00031906,0.00238266,0.00193184,-0.01294871,-0.01088321,-0.02306289,0.
 12510547,0.00782218,0.00391412,0.01291474,-0.04816105,-0.08328772,-0.0
 7682140,-0.00166947,-0.00154617,0.00220170,0.00073287,0.00100160,0.001
 71385,-0.00093488,-0.00083347,0.00198632,-0.00009704,-0.00002989,-0.00
 017059,0.00021440,0.00068078,0.00091566,-0.01656742,-0.00437865,-0.025
 53426,0.00555359,0.00449808,0.00956115,0.05279575,0.08621243,-0.013681
 70,-0.00668272,-0.02954988,-0.10391980,-0.07012285,-0.21005333,0.00438
 330,0.00310093,-0.00208832,-0.00081562,-0.00211341,-0.00027557,0.00008
 475,0.00094354,-0.00042566,-0.00002022,0.00007889,0.00017827,-0.000684
 16,-0.00091566,-0.00121393,-0.00009051,-0.00132689,0.00086606,0.000260
 52,0.00076999,0.00248842,0.11340948,0.07699259,0.23559946,0.00091140,0
 .00279441,0.,-0.00051388,-0.00707340,-0.00841391,-0.00051388,-0.007073
 39,0.00841391,-0.00005783,-0.00010948,0.,-0.11435547,-0.03641146,0.031
 82612,0.00103574,-0.00175888,-0.00090475,0.00167807,-0.00042370,-0.000
 32717,-0.11435547,-0.03641146,-0.03182612,0.00103574,-0.00175888,0.000
 90475,0.00167807,-0.00042370,0.00032717,0.24302322,0.00171987,0.009465
 87,0.,-0.02381106,-0.01594407,-0.04205815,-0.02381106,-0.01594407,0.04
 205815,0.00003375,-0.00043306,0.,-0.03307778,-0.08970780,0.02279935,-0
 .00014510,0.00367663,-0.00015133,-0.00036948,-0.00833217,-0.00073842,-
 0.03307778,-0.08970780,-0.02279935,-0.00014510,0.00367663,0.00015133,-
 0.00036948,-0.00833217,0.00073842,0.10381933,0.18618904,0.,0.,-0.00018
 372,-0.00975910,-0.01257288,-0.01817415,0.00975910,0.01257288,-0.01817
 415,0.,0.,-0.00000918,0.06164096,0.04421819,-0.16199116,-0.00104562,-0
 .00084088,0.00091336,0.00026556,0.00286574,0.00223379,-0.06164096,-0.0
 4421819,-0.16199116,0.00104562,0.00084088,0.00091336,-0.00026556,-0.00
 286574,0.00223379,0.,0.,0.45334649,0.00107969,0.00002679,0.00069414,0.
 00006043,-0.00029722,0.00077705,-0.00055164,-0.00064027,-0.00236574,0.
 00018014,-0.00012836,0.00006091,-0.24803308,0.07984943,-0.00356670,0.0
 0123208,-0.00048597,-0.00028183,0.00031494,0.00111451,-0.00019836,0.00
 013344,-0.00123186,-0.00425888,-0.00010254,-0.00012659,-0.00020655,0.0
 0004427,0.00019588,0.00000674,-0.01953065,-0.00176090,0.01778355,0.277
 33101,0.00056961,0.00279675,0.00110397,0.00012929,-0.00026400,0.000084
 21,0.03408221,-0.01451688,0.00107475,0.00012600,-0.00054956,0.00011814
 ,0.07910063,-0.08175540,-0.00274359,-0.00094594,-0.00605848,-0.0003187
 8,-0.00053787,0.00108304,0.00021057,-0.00063820,-0.00039999,-0.0017154
 0,-0.00006514,-0.00000827,0.00016982,0.00003384,0.00010214,-0.00011269
 ,-0.01510093,0.00695554,0.00533263,-0.08458267,0.08784644,0.00103622,0
 .00029100,0.00033453,-0.00050578,0.00002725,-0.00079217,-0.00236374,-0
 .00077476,0.00124664,-0.00001197,-0.00008386,0.00002802,-0.00527289,-0
 .00307988,-0.05116977,0.00043714,0.00063862,0.00107176,-0.00022529,-0.
 00017082,0.00018332,0.00602692,0.00024849,0.00508918,-0.00007612,0.000
 21891,-0.00006641,-0.00010164,-0.00025087,0.00005281,0.03501642,-0.004
 54947,-0.01614782,-0.01027122,-0.00216849,0.05689968,0.00103311,-0.000
 43534,0.00013157,-0.00003968,-0.00008423,0.00044945,0.00032917,0.00226
 178,0.00111038,0.00016876,0.00049901,-0.00013010,-0.12680827,-0.054461
 12,-0.11353004,0.00058218,-0.00027893,0.00042594,0.00002041,-0.0003504
 1,-0.00007258,-0.00107478,-0.00085681,0.00250238,0.00000822,-0.0000106
 7,-0.00004171,-0.00001716,0.00010367,-0.00004784,0.00985047,0.00638600
 ,0.01829073,-0.01435275,-0.01119838,-0.02163188,0.12890990,0.00018913,
 -0.00866152,-0.00017367,-0.00038526,-0.00028374,0.00135953,-0.01751030
 ,-0.00884072,-0.02553530,-0.00058670,0.00132527,-0.00121438,-0.0533886
 3,-0.08933677,-0.08047216,0.00069476,0.00116872,-0.00020418,-0.0003113
 4,0.00058916,0.00069726,-0.00125165,-0.00073724,0.00227255,0.00006371,
 0.00005183,-0.00010569,0.00002497,0.00011833,-0.00013849,0.00705189,0.
 00619804,0.01358625,0.00681583,0.00546966,0.00925684,0.05812525,0.0933
 8480,0.00021802,0.00138726,0.00194089,0.00009658,0.00069901,-0.0005358
 5,0.00010097,-0.00162707,0.00246835,0.00001980,0.00009749,0.00013923,-
 0.10314241,-0.07459578,-0.19648553,0.00010783,-0.00019663,0.00014195,0
 .00005323,-0.00082446,0.00004793,0.00456795,0.00291589,-0.00177545,-0.
 00000529,-0.00004694,0.00002246,-0.00006030,-0.00019113,0.00013841,-0.
 01126450,-0.00712161,-0.03431612,-0.00095707,0.00032379,0.00225979,0.1
 1118056,0.07984771,0.22724417,0.00107969,0.00002679,-0.00069414,-0.000
 55164,-0.00064027,0.00236574,0.00006043,-0.00029722,-0.00077705,0.0001
 8014,-0.00012836,-0.00006091,0.00013344,-0.00123186,0.00425888,-0.0001
 0254,-0.00012659,0.00020655,0.00004427,0.00019588,-0.00000674,-0.24803
 308,0.07984943,0.00356670,0.00123208,-0.00048597,0.00028183,0.00031494
 ,0.00111451,0.00019836,-0.01953065,-0.00176090,-0.01778355,0.00144935,
 0.00048623,-0.00188185,0.00049339,-0.00008152,-0.00024730,0.27733101,0
 .00056961,0.00279675,-0.00110397,0.03408221,-0.01451688,-0.00107475,0.
 00012929,-0.00026400,-0.00008421,0.00012600,-0.00054956,-0.00011814,-0
 .00063820,-0.00039999,0.00171540,-0.00006514,-0.00000827,-0.00016982,0
 .00003384,0.00010214,0.00011269,0.07910063,-0.08175540,0.00274359,-0.0
 0094594,-0.00605848,0.00031878,-0.00053787,0.00108304,-0.00021057,-0.0
 1510093,0.00695554,-0.00533263,0.00048623,-0.00016109,0.00027489,-0.00
 004235,-0.00001818,0.00005342,-0.08458267,0.08784644,-0.00103622,-0.00
 029100,0.00033453,0.00236374,0.00077476,0.00124664,0.00050578,-0.00002
 725,-0.00079217,0.00001197,0.00008386,0.00002802,-0.00602692,-0.000248
 49,0.00508918,0.00007612,-0.00021891,-0.00006641,0.00010164,0.00025087
 ,0.00005281,0.00527289,0.00307988,-0.05116977,-0.00043714,-0.00063862,
 0.00107176,0.00022529,0.00017082,0.00018332,-0.03501643,0.00454947,-0.
 01614782,0.00188185,-0.00027489,0.00068484,0.00033702,-0.00017244,0.00
 009769,0.01027122,0.00216849,0.05689968,0.00103311,-0.00043534,-0.0001
 3157,0.00032917,0.00226178,-0.00111038,-0.00003968,-0.00008423,-0.0004
 4945,0.00016876,0.00049901,0.00013010,-0.00107478,-0.00085681,-0.00250
 238,0.00000822,-0.00001067,0.00004171,-0.00001716,0.00010367,0.0000478
 4,-0.12680827,-0.05446112,0.11353004,0.00058218,-0.00027893,-0.0004259
 4,0.00002041,-0.00035041,0.00007258,0.00985047,0.00638600,-0.01829073,
 0.00049339,-0.00004235,-0.00033702,0.00052233,0.00007094,-0.00060323,-
 0.01435275,-0.01119838,0.02163188,0.12890990,0.00018913,-0.00866152,0.
 00017367,-0.01751030,-0.00884072,0.02553530,-0.00038526,-0.00028374,-0
 .00135953,-0.00058670,0.00132527,0.00121438,-0.00125165,-0.00073724,-0
 .00227255,0.00006371,0.00005183,0.00010569,0.00002497,0.00011833,0.000
 13849,-0.05338863,-0.08933677,0.08047216,0.00069476,0.00116872,0.00020
 418,-0.00031134,0.00058916,-0.00069726,0.00705189,0.00619804,-0.013586
 25,-0.00008152,-0.00001818,0.00017244,0.00007094,0.00043888,-0.0007076
 3,0.00681583,0.00546966,-0.00925684,0.05812525,0.09338480,-0.00021802,
 -0.00138726,0.00194089,-0.00010097,0.00162707,0.00246835,-0.00009658,-
 0.00069901,-0.00053585,-0.00001980,-0.00009749,0.00013923,-0.00456795,
 -0.00291589,-0.00177545,0.00000529,0.00004694,0.00002246,0.00006030,0.
 00019113,0.00013841,0.10314241,0.07459578,-0.19648553,-0.00010783,0.00
 019663,0.00014195,-0.00005323,0.00082446,0.00004793,0.01126450,0.00712
 161,-0.03431612,0.00024730,-0.00005342,0.00009769,0.00060323,0.0007076
 3,-0.00132789,0.00095707,-0.00032379,0.00225979,-0.11118056,-0.0798477
 1,0.22724417,-0.00250650,0.00307689,0.,-0.00097175,-0.00093016,0.00108
 945,-0.00097175,-0.00093016,-0.00108945,-0.18237744,0.04146430,0.,0.00
 074113,-0.00001608,0.00047146,0.00068678,0.00055042,0.00055689,-0.0000
 2477,-0.00011426,-0.00013827,0.00074113,-0.00001608,-0.00047146,0.0006
 8678,0.00055042,-0.00055689,-0.00002477,-0.00011426,0.00013827,0.00012
 502,0.00014406,0.,0.00003086,-0.00036445,0.00001044,0.00002952,0.00024
 664,-0.00000596,0.00003086,-0.00036445,-0.00001044,0.00002952,0.000246
 64,0.00000596,0.19954383,0.02278872,-0.01489565,0.,0.00165547,0.001328
 13,-0.00209797,0.00165547,0.00132813,0.00209797,0.03325225,-0.04131613
 ,0.,0.00007615,0.00004997,-0.00007898,-0.00005214,0.00013095,0.0000191
 4,-0.00009118,-0.00014170,-0.00017684,0.00007615,0.00004998,0.00007898
 ,-0.00005214,0.00013095,-0.00001914,-0.00009118,-0.00014170,0.00017684
 ,-0.00005071,-0.00007272,0.,-0.00011893,0.00000183,-0.00000190,-0.0001
 1726,-0.00009680,-0.00002234,-0.00011893,0.00000183,0.00000190,-0.0001
 1726,-0.00009680,0.00002234,-0.04796673,0.05108412,0.,0.,-0.00056853,-
 0.00021667,0.00018984,-0.00006830,0.00021667,-0.00018984,-0.00006830,0
 .,0.,-0.03338195,0.00027665,0.00025141,-0.00007103,0.00027886,-0.00016
 833,0.00005863,0.00011172,0.00016829,0.00015006,-0.00027665,-0.0002514
 1,-0.00007103,-0.00027886,0.00016833,0.00005863,-0.00011172,-0.0001682
 9,0.00015006,0.,0.,0.00029832,-0.00004185,-0.00010636,-0.00000194,-0.0
 0000353,0.00002739,0.00000285,0.00004185,0.00010636,-0.00000194,0.0000
 0353,-0.00002739,0.00000285,0.,0.,0.03065918,-0.00087776,-0.00057938,-
 0.00003091,0.00035743,-0.00029347,-0.00045556,0.00010499,0.00044327,0.
 00080717,-0.07121946,-0.01996136,0.06432475,-0.00010023,-0.00000769,-0
 .00013376,0.00006050,0.00019120,0.00019818,-0.00005775,-0.00039621,-0.
 00030912,0.00049966,0.00027961,0.00037787,0.00047083,0.00025674,-0.000
 29118,-0.00003579,0.00009276,0.00024066,0.00007054,0.00007313,-0.00030
 695,0.00005003,-0.00005166,0.00002735,-0.00002471,-0.00007411,-0.00001
 455,0.00002971,-0.00019455,-0.00002845,-0.00002069,-0.00000791,-0.0000
 1716,-0.00848437,-0.00533316,0.01593029,0.07265127,-0.01300679,-0.0141
 9773,0.02043417,0.00107806,-0.00464545,-0.00226681,0.00056487,0.000974
 13,0.00207585,-0.01588879,-0.04097275,0.02755772,0.00003968,0.00050046
 ,0.00013384,-0.00014759,-0.00011454,-0.00014869,-0.00000248,0.00008100
 ,-0.00001815,-0.00111340,-0.00031434,0.00197208,-0.00032164,-0.0002590
 0,-0.00002060,0.00024357,-0.00017745,0.00013079,0.00004487,-0.00000286
 ,0.00002523,0.00004723,0.00000891,0.00001688,-0.00004128,-0.00004805,-
 0.00001843,0.00007265,0.00010838,-0.00002930,-0.00007906,-0.00069880,-
 0.00006019,0.00243692,0.00399632,-0.00503891,0.02361327,0.05015386,0.0
 0095902,0.00158145,-0.00211079,-0.00061024,0.00077562,0.00079959,-0.00
 039798,-0.00132320,-0.00139349,0.06473652,0.03471368,-0.14425410,0.000
 17955,0.00074154,0.00042916,0.00001347,0.00002934,0.00001400,-0.000150
 13,0.00033381,0.00095613,-0.00004010,-0.00080203,-0.00057592,-0.000129
 71,-0.00018590,-0.00003717,0.00010643,-0.00029094,0.00049691,-0.000020
 57,-0.00013092,0.00118002,-0.00004960,-0.00001726,0.00000158,0.0000419
 6,0.00018410,0.00002809,-0.00001494,0.00012746,0.00004499,0.00000950,0
 .00012871,0.00000376,0.00109473,-0.00037892,0.00132360,-0.07302381,-0.
 04020759,0.15692870,-0.00087776,-0.00057939,0.00003091,0.00010499,0.00
 044327,-0.00080717,0.00035743,-0.00029347,0.00045556,-0.07121946,-0.01
 996136,-0.06432475,0.00049966,0.00027961,-0.00037787,0.00047083,0.0002
 5674,0.00029118,-0.00003579,0.00009276,-0.00024066,-0.00010023,-0.0000
 0769,0.00013376,0.00006050,0.00019120,-0.00019818,-0.00005775,-0.00039
 621,0.00030912,0.00007054,0.00007313,0.00030695,0.00002971,-0.00019455
 ,0.00002845,-0.00002069,-0.00000791,0.00001716,0.00005003,-0.00005166,
 -0.00002735,-0.00002471,-0.00007411,0.00001455,-0.00848437,-0.00533316
 ,-0.01593029,0.00640007,0.00307587,0.00733356,0.07265127,-0.01300679,-
 0.01419773,-0.02043417,0.00056487,0.00097413,-0.00207585,0.00107806,-0
 .00464545,0.00226681,-0.01588879,-0.04097275,-0.02755772,-0.00111340,-
 0.00031434,-0.00197208,-0.00032164,-0.00025900,0.00002060,0.00024357,-
 0.00017745,-0.00013079,0.00003968,0.00050046,-0.00013384,-0.00014759,-
 0.00011454,0.00014869,-0.00000248,0.00008100,0.00001815,0.00004487,-0.
 00000286,-0.00002523,0.00007265,0.00010838,0.00002930,-0.00007906,-0.0
 0069880,0.00006019,0.00004723,0.00000891,-0.00001688,-0.00004128,-0.00
 004805,0.00001843,0.00243692,0.00399632,0.00503891,0.00307587,0.003953
 24,0.00445901,0.02361327,0.05015386,-0.00095902,-0.00158145,-0.0021107
 9,0.00039798,0.00132320,-0.00139349,0.00061024,-0.00077562,0.00079959,
 -0.06473652,-0.03471368,-0.14425410,0.00004010,0.00080203,-0.00057592,
 0.00012971,0.00018590,-0.00003717,-0.00010643,0.00029094,0.00049691,-0
 .00017955,-0.00074154,0.00042916,-0.00001347,-0.00002934,0.00001400,0.
 00015013,-0.00033381,0.00095613,0.00002056,0.00013092,0.00118002,0.000
 01494,-0.00012746,0.00004499,-0.00000950,-0.00012871,0.00000376,0.0000
 4960,0.00001726,0.00000158,-0.00004196,-0.00018410,0.00002809,-0.00109
 473,0.00037892,0.00132360,-0.00733356,-0.00445901,-0.01329193,0.073023
 81,0.04020759,0.15692870,-0.37784265,0.08739934,0.,-0.01544682,0.00450
 548,0.00301031,-0.01544682,0.00450548,-0.00301031,-0.00022006,0.001428
 51,0.,0.00080137,0.00005391,0.00112534,0.00072088,-0.00119935,-0.00233
 542,0.00091657,0.00008883,0.00017108,0.00080137,0.00005391,-0.00112534
 ,0.00072088,-0.00119935,0.00233542,0.00091657,0.00008883,-0.00017108,-
 0.00047146,-0.00030662,0.,0.00014133,-0.00080567,0.00009645,0.00039058
 ,0.00031430,-0.00006149,0.00014133,-0.00080567,-0.00009645,0.00039058,
 0.00031430,0.00006149,0.00120030,-0.00006144,0.,0.00012574,-0.00061597
 ,-0.00003766,0.00012574,-0.00061597,0.00003766,0.40203458,0.10577604,-
 0.06738629,0.,-0.01614821,0.00216100,0.00247339,-0.01614821,0.00216100
 ,-0.00247339,0.02373702,-0.00877972,0.,-0.00246935,0.00146083,0.000739
 03,-0.00074638,-0.00094506,-0.00199452,0.00067372,0.00044652,0.0006296
 2,-0.00246935,0.00146083,-0.00073903,-0.00074638,-0.00094506,0.0019945
 2,0.00067372,0.00044652,-0.00062962,0.00088966,-0.00083571,0.,0.000845
 75,-0.00064082,-0.00009455,0.00050919,-0.00002288,-0.00003274,0.000845
 75,-0.00064082,0.00009455,0.00050919,-0.00002288,0.00003274,-0.0003365
 9,-0.00533703,0.,-0.00112636,0.00165467,0.00026205,-0.00112636,0.00165
 467,-0.00026205,-0.09314285,0.07411021,0.,0.,-0.05620161,0.03377221,-0
 .00825675,-0.00240641,-0.03377221,0.00825675,-0.00240641,0.,0.,0.00156
 983,-0.00033323,0.00073157,0.00124730,-0.00250189,-0.00275054,-0.00505
 311,0.00018745,0.00065427,0.00021514,0.00033323,-0.00073157,0.00124730
 ,0.00250189,0.00275054,-0.00505311,-0.00018745,-0.00065427,0.00021514,
 0.,0.,-0.00084775,0.00073132,-0.00077956,0.00018329,0.00039397,0.00020
 576,-0.00009473,-0.00073132,0.00077956,0.00018329,-0.00039397,-0.00020
 576,-0.00009473,0.,0.,0.00020524,0.00003876,-0.00007887,-0.00054313,-0
 .00003876,0.00007887,-0.00054313,0.,0.,0.06817759||-0.00001285,-0.0000
 2284,0.,0.00002047,-0.00000374,-0.00002899,0.00002047,-0.00000374,0.00
 002899,0.00000623,-0.00000273,0.,-0.00001612,-0.00001102,0.00006210,-0
 .00002892,0.00001268,0.00000143,0.00001736,0.00002057,-0.00002292,-0.0
 0001612,-0.00001102,-0.00006210,-0.00002892,0.00001268,-0.00000143,0.0
 0001736,0.00002057,0.00002292,-0.00000206,0.00001369,0.,0.00002797,-0.
 00000232,-0.00001203,-0.00001657,-0.00001714,-0.00003010,0.00002797,-0
 .00000232,0.00001203,-0.00001657,-0.00001714,0.00003010,-0.00005381,-0
 .00000153,0.,0.00002601,-0.00000255,-0.00004307,0.00002601,-0.00000255
 ,0.00004307,0.00000209,0.00002042,0.|||@
 Job cpu time:  0 days  0 hours 23 minutes  3.0 seconds.
 File lengths (MBytes):  RWF=   6710 Int=      0 D2E=      0 Chk=      8 Scr=      1
 Normal termination of Gaussian 09 at Tue Jul 23 23:15:53 2019.
